
                                 *****************
                                 * O   R   C   A *
                                 *****************

                                            #,                                       
                                            ###                                      
                                            ####                                     
                                            #####                                    
                                            ######                                   
                                           ########,                                 
                                     ,,################,,,,,                         
                               ,,#################################,,                 
                          ,,##########################################,,             
                       ,#########################################, ''#####,          
                    ,#############################################,,   '####,        
                  ,##################################################,,,,####,       
                ,###########''''           ''''###############################       
              ,#####''   ,,,,##########,,,,          '''####'''          '####       
            ,##' ,,,,###########################,,,                        '##       
           ' ,,###''''                  '''############,,,                           
         ,,##''                                '''############,,,,        ,,,,,,###''
      ,#''                                            '''#######################'''  
     '                                                          ''''####''''         
             ,#######,   #######,   ,#######,      ##                                
            ,#'     '#,  ##    ##  ,#'     '#,    #''#        ,####,    ,#,          
            ##       ##  ##   ,#'  ##            #'  '#       #'       ,# #          
            ##       ##  #######   ##           ,######,      #####,      #          
            '#,     ,#'  ##    ##  '#,     ,#' ,#      #,     #,   #      #          
             '#######'   ##     ##  '#######'  #'      '#     '####' #    #          



                #########################################################
                #                        -***-                          #
                #          Department of theory and spectroscopy        #
                #                                                       #
                #                      Frank Neese                      #
                #                                                       #
                #     Directorship, Architecture, Infrastructure        #
                #                    SHARK, DRIVERS                     #
                #        Core code/Algorithms in most modules           #
                #                                                       #
                #        Max Planck Institute fuer Kohlenforschung      #
                #                Kaiser Wilhelm Platz 1                 #
                #                 D-45470 Muelheim/Ruhr                 #
                #                      Germany                          #
                #                                                       #
                #                  All rights reserved                  #
                #                        -***-                          #
                #########################################################


                         Program Version 6.1.1  -  RELEASE   -
                                (GIT: $487d211c$)
                          ($2025-11-21 10:33:24 +0100$)


 With contributions from (in alphabetic order):
[Max-Planck-Institut fuer Kohlenforschung]                               
  Daniel Aravena         : Magnetic Suceptibility                        
  Michael Atanasov       : Ab Initio Ligand Field Theory (pilot matlab implementation)
  Alexander A. Auer      : GIAO ZORA, VPT2 properties, NMR spectrum      
  Ute Becker             : All parallelization in ORCA, NUMFREQ, NUMCALC 
  Giovanni Bistoni       : ED, misc. LED, open-shell LED, HFLD           
  Dmytro Bykov           : pre 5.0 version of the SCF Hessian            
  Marcos Casanova-Páez   : Triplet and SCS-CIS(D). UHF-(DLPNO)-IP/EA/STEOM-CCSD. UHF-CVS-IP/STEOM-CCSD   
  Vijay G. Chilkuri      : MRCI spin determinant printing, contributions to CSF-ICE 
  Pauline Colinet        : FMM embedding                                 
  Dipayan Datta          : RHF DLPNO-CCSD density                        
  Achintya Kumar Dutta   : EOM-CC, STEOM-CC                              
  Nicolas Foglia         : Exact transition moments, OPA infrastructure, MCD improvements    
  Dmitry Ganyushin       : Spin-Orbit,Spin-Spin,Magnetic field MRCI      
  Miquel Garcia-Rates    : C-PCM and meta-GGA Hessian, CCSD/C-PCM, Gaussian charge scheme 
  Tiago L. C. Gouveia    : GS-ROHF, GS-ROCIS                             
  Yang Guo               : DLPNO-NEVPT2, F12-NEVPT2, CIM, IAO-localization        
  Andreas Hansen         : Spin unrestricted coupled pair/coupled cluster methods 
  Ingolf Harden          : AUTO-CI MPn and infrastructure                
  Benjamin Helmich-Paris : MC-RPA, TRAH-(SCF,CASSCF), AVAS, COSX integrals, SCF dyn. polar., MC-PDFT, srDFT 
  Lee Huntington         : MR-EOM, pCC                                   
  Robert Izsak           : Overlap fitted RIJCOSX, COSX-SCS-MP3, EOM     
  Riya Kayal             : Wick's Theorem for AUTO-CI, AUTO-CI UHF-CCSDT 
  Emily Kempfer          : AUTO-CI RHF CISDT and CCSDT, approximate NEVPT4
  Christian Kollmar      : KDIIS, OOCD, Brueckner-CCSD(T), CCSD density, CASPT2, CASPT2-K, improved NEVPT2 
  Axel Koslowski         : Symmetry handling                             
  Simone Kossmann        : meta-GGA functionals, TD-DFT gradient, OOMP2, (MP2 Hessian; deprecated post 5.0) 
  Lucas Lang             : DCDCAS, Hyperfine gauge corrections, ICE-SOC+SSC
  Marvin Lechner         : AUTO-CI (C++ implementation), FIC-MRCC        
  Spencer Leger          : CASSCF response                               
  Dagmar Lenk            : GEPOL surface, SMD, ORCA-2-JSON               
  Dimitrios Liakos       : Extrapolation schemes; Compound Job, Property file
  Dimitrios Manganas     : Further ROCIS development; embedding schemes. LFT, Crystal Embedding 
  Dimitrios Pantazis     : SARC Basis sets                               
  Anastasios Papadopoulos: AUTO-CI, single reference methods and gradients 
  Taras Petrenko         : pre 6.0 DFT Hessian and TD-DFT gradient,  ECA, NRVS 
  Petra Pikulova         : Analytic Raman intensities                    
  Peter Pinski           : DLPNO-MP2, DLPNO-MP2 Gradient                 
  Shashank Vittal Rao    : ES-AILFT, MagRelax                            
  Christoph Reimann      : Effective Core Potentials                     
  Marius Retegan         : Local ZFS, SOC                                
  Christoph Riplinger    : Optimizer, TS searches, QM/MM, DLPNO-CCSD(T), (RO)-DLPNO pert. Triples 
  Michael Roemelt        : Original ROCIS implementation, recursive CI coupling coefficients
  Masaaki Saitow         : Open-shell DLPNO-CCSD energy and density      
  Barbara Sandhoefer     : DKH picture change effects                    
  Yorick L. A. Schmerwitz: GMF and freeze-and-release deltaSCF, NEB S-IDPP initial path                    
  Kantharuban Sivalingam : CASSCF convergence/infrastructure, NEVPT2, NEVPT3, NEVPT4(SD), FIC-MRCI and CEPA variants
  Bernardo de Souza      : ESD, SOC TD-DFT                               
  Georgi L. Stoychev     : AutoAux, RI-MP2 NMR, DLPNO-MP2 response, X2C  
  Van Anh Tran           : RI-MP2 g-tensors                              
  Willem Van den Heuvel  : Paramagnetic NMR                              
  Zikuan Wang            : NOTCH, Electric field optimization            
  Frank Wennmohs         : Technical directorship and infrastructure     
  Hang Xu                : AUTO-CI-Response properties                   
                                                                         
[FACCTs GmbH]                                                            
  Markus Bursch, Nicolas Foglia, Miquel Garcia-Rates, Ingolf Harden, Hagen Neugebauer, Anastasios Papadopoulos, 
  Christoph Riplinger, Bernardo de Souza, Georgi L. Stoychev                                                    
                                                                 
  APM, various basis sets, CI-OPT, improved COSX, DLPNO-Multilevel,           
  DOCKER, DRACO, updates on ESD, Fragmentator, GOAT, IRC, LR-CPCM, L-BFGS, MBIS, meta-GGA TD-DFT gradient, ML-optimized integration grids, 
  MM, NACMEs, nearIR, NEB, NEB-TS, NL-DFT gradient (VV10), 2- and 3-layer-ONIOM, interface openCOSMO-RS, QMMM,   
  Crystal-QMMM, RESP, rigid body optimization, SF, symmetry and pop. for TD-DFT, various functionals, SOLVATOR                                   
                                                                         
[Other institutions]                                                     
  V. Asgeirsson          : NEB                                           
  Christoph Bannwarth    : sTDA-DFT, sTD-DFT, PBEh-3c, B97-3c, D3        
  Giovanni Bistoni       : ETS/NOCV, ADLD/ADEX, COVALED                  
  Martin Brehm           : Molecular dynamics                            
  Ronald Cardenas        : ETS/NOCV                                      
  Martina Colucci        : COVALED                                       
  Sebastian Ehlert       : rSCAN, r2SCAN, r2SCAN-3c, D4, dhf basis sets  
  Marvin Friede          : D4 for Fr, Ra, Ac-Lr                          
  Lars Goerigk           : TD-DFT with DH, B97 family of functionals     
  Stefan Grimme          : VdW corrections, initial TS optimization, DFT functionals, gCP, sTDA/sTD-DF 
  Waldemar Hujo          : DFT-NL                                        
  H. Jonsson             : NEB                                           
  Holger Kruse           : gCP                                           
  Marcel Mueller         : wB97X-3c, vDZP basis set                      
  Hagen Neugebauer       : wr2SCAN, Native XTB                           
  Gianluca Regni         : ADLD/ADEX                                     
  Tobias Risthaus        : pre 6.0 range-separated hybrid DFT and stability analysis
  Lukas Wittmann         : regularized MP2, r2SCAN double-hybrids, wr2SCAN        
                                                                         
We gratefully acknowledge several colleagues who have allowed us to      
interface, adapt or use parts of their codes:                            
  Ed Valeev, F. Pavosevic, A. Kumar             : LibInt (2-el integral package), F12 methods 
  Garnet Chan, S. Sharma, J. Yang, R. Olivares  : DMRG                   
  Ulf Ekstrom                                   : XCFun DFT Library      
  Mihaly Kallay                                 : mrcc  (arbitrary order and MRCC methods)
  Frank Weinhold                                : gennbo (NPA and NBO analysis)           
  Simon Mueller                                 : openCOSMO-RS                            
  Christopher J. Cramer and Donald G. Truhlar   : smd solvation model                     
  S Lehtola, MJT Oliveira, MAL Marques          : LibXC Library                           
  Liviu Ungur et al                             : ANISO software                          


 Your calculation uses the libint2 library for the computation of 2-el integrals
 For citations please refer to: http://libint.valeyev.net

 Your ORCA version has been built with support for libXC version: 7.0.0
 For citations please refer to: https://libxc.gitlab.io

 This ORCA versions uses:
   CBLAS   interface :  Fast vector & matrix operations
   LAPACKE interface :  Fast linear algebra routines
   SCALAPACK package :  Parallel linear algebra routines
   Shared memory     :  Shared parallel matrices
   BLAS/LAPACK       :  OpenBLAS 0.3.29  USE64BITINT DYNAMIC_ARCH NO_AFFINITY Cooperlake SINGLE_THREADED
        Core in use  :  Cooperlake
   Copyright (c) 2011-2014, The OpenBLAS Project


  ***********************************
  * Starting time: Sun May  3 11:40:40 2026
  * Host name:     1c549898b3c4
  * Process ID:    15884
  * Working dir.:  /dev/shm/calc
  ***********************************

NOTE: MaxCore=5000 MB was set to SCF,MP2,MDCI,CIPSI,MRCI,RASCI and CIS
      => If you want to overwrite this, your respective input block should be placed after the MaxCore statement


***************************************
The coordinates will be read from file: cu2i2_veratrole_pi_opt_freq_v2_start.xyz
***************************************


Your calculation utilizes the atom-pairwise dispersion correction
with the Becke-Johnson damping scheme (D3BJ)


================================================================================

cite the ECPs for I  [Def2-ECP] as follows:
Ce-Yb(ecp-28): M. Dolg, H. Stoll, H.Preuss, J. Chem. Phys., 1989, 90, 1730-1734.
Y-Cd(ecp-28), Hf-Hg(ecp-46): D. Andrae,U. Haeussermann, M. Dolg, H. Stoll, H. Preuss, Theor. Chim. Acta, 1990, 77, 123-141.
In-Sb(ecp-28), Tl-Bi(ecp-46): B. Metz, H. Stoll, M. Dolg, J. Chem. Phys., 2000, 113, 2563-2569.
Te-Xe(ecp-28), Po-Rn(ecp-46): K. A. Peterson, D. Figgen, E. Goll, H. Stoll, M. Dolg, J. Chem. Phys., 2003, 119, 11113-11123.
Rb(ecp-28), Cs(ecp-46): T. Leininger, A. Nicklass, W. Kuechle, H. Stoll, M. Dolg, A. Bergner, Chem. Phys. Lett., 1996, 255, 274-280.
Sr(ecp-28), Ba(ecp-46): M. Kaupp, P. V. Schleyer, H. Stoll and H. Preuss, J. Chem. Phys., 1991, 94, 1360-1366.
La(ecp-46): M. Dolg, H. Stoll, A. Savin, H. Preuss, Theor. Chim. Acta, 1989, 75, 173-194.
Lu(ecp-28): X. Cao, M. Dolg, J. Chem. Phys., 2001, 115, 7348-7355.

ECP parameters for I  [Def2-ECP] have been obtained from:
TURBOMOLE (7.0.2)

----- Orbital basis set information -----
Your calculation utilizes the basis: def2-TZVP
   F. Weigend and R. Ahlrichs, Phys. Chem. Chem. Phys. 7, 3297 (2005).

----- AuxJ basis set information -----
Your calculation utilizes the auxiliary basis: def2/J
   H-Rn: F. Weigend, Phys. Chem. Chem. Phys. 8, 1057 (2006).
   Fr-Lr: K. Eichkorn, F. Weigend, O. Treutler, R. Ahlrichs; Theor. Chem. Acc. 97, 119 (1997).

================================================================================
                                        WARNINGS
                       Please study these warnings very carefully!
================================================================================


WARNING: Geometry Optimization
  ===> : Switching off AutoStart
         For restart on a previous wavefunction, please use MOREAD

================================================================================
                                       INPUT FILE
================================================================================
NAME = cu2i2_veratrole_pi_opt_freq_v2.inp
|  1> ! B3LYP D3BJ def2-TZVP def2/J RIJCOSX TightSCF DefGrid3 Opt Freq
|  2> 
|  3> %geom
|  4>   MaxIter 200
|  5> end
|  6> 
|  7> %pal nprocs 8 end
|  8> %maxcore 5000
|  9> 
| 10> * xyzfile 0 1 cu2i2_veratrole_pi_opt_freq_v2_start.xyz
| 11> 
| 12>                          ****END OF INPUT****
================================================================================

                       *****************************
                       * Geometry Optimization Run *
                       *****************************

Geometry optimization settings:
Update method            Update   .... BFGS
Choice of coordinates    CoordSys .... (2022) Redundant Internals
Initial Hessian          InHess   .... Almloef's Model
Max. no of cycles        MaxIter  .... 200

Convergence Tolerances:
Energy Change            TolE     ....  5.0000e-06 Eh
Max. Gradient            TolMAXG  ....  3.0000e-04 Eh/bohr
RMS Gradient             TolRMSG  ....  1.0000e-04 Eh/bohr
Max. Displacement        TolMAXD  ....  4.0000e-03 bohr
RMS Displacement         TolRMSD  ....  2.0000e-03 bohr
Strict Convergence                .... False

------------------------------------------------------------------------------
                        ORCA OPTIMIZATION COORDINATE SETUP
------------------------------------------------------------------------------

The optimization will be done in redundant internal coordinates (2022)
Making redundant internal coordinates   ...  (2022 redundants) done
Evaluating the initial hessian          ...  (Almloef) done
Evaluating the coordinates              ...  done
Calculating the B-matrix                .... done
Calculating the G-matrix                .... done
The number of degrees of freedom        ....  177

    -----------------------------------------------------------------
                    Redundant Internal Coordinates


    -----------------------------------------------------------------
         Definition                    Initial Value    Approx d2E/dq
    -----------------------------------------------------------------
      1. B(Cu  1,Cu  0)                  2.4790         1.170988   
      2. B(I   2,Cu  0)                  2.7134         0.164392   
      3. B(I   2,Cu  1)                  2.4967         0.364543   
      4. B(I   3,Cu  1)                  2.5051         0.353420   
      5. B(I   3,Cu  0)                  2.6879         0.180569   
      6. B(C   5,C   4)                  1.4101         0.580236   
      7. B(C   6,C   5)                  1.3955         0.612190   
      8. B(C   7,C   6)                  1.3890         0.627001   
      9. B(C   7,Cu  0)                  2.7902         0.036892   
     10. B(C   8,C   7)                  1.3981         0.606455   
     11. B(C   8,Cu  0)                  2.2424         0.276011   
     12. B(C   9,C   8)                  1.4094         0.581846   
     13. B(C   9,C   4)                  1.3896         0.625789   
     14. B(C   9,Cu  0)                  2.4107         0.148750   
     15. B(O  10,C   4)                  1.3627         0.618729   
     16. B(C  11,O  10)                  1.4337         0.476642   
     17. B(H  12,C  11)                  1.0936         0.355370   
     18. B(H  13,C  11)                  1.0920         0.357512   
     19. B(H  14,C  11)                  1.0874         0.363526   
     20. B(O  15,C   5)                  1.3469         0.655704   
     21. B(C  16,O  15)                  1.4220         0.497484   
     22. B(H  17,C  16)                  1.0934         0.355674   
     23. B(H  18,C  16)                  1.0931         0.356012   
     24. B(H  19,C  16)                  1.0866         0.364578   
     25. B(H  20,C   6)                  1.0792         0.374729   
     26. B(H  21,C   7)                  1.0815         0.371518   
     27. B(H  22,C   8)                  1.0821         0.370738   
     28. B(H  23,C   9)                  1.0820         0.370803   
     29. A(I   3,Cu  0,C   9)          113.9575         0.356460   
     30. A(I   2,Cu  0,C   7)           98.3207         0.279976   
     31. A(Cu  1,Cu  0,C   9)          144.7804         0.517248   
     32. A(Cu  1,Cu  0,I   3)           57.8340         0.563867   
     33. A(I   3,Cu  0,C   8)          119.6179         0.396626   
     34. A(Cu  1,Cu  0,C   7)          152.4804         0.401350   
     35. A(I   2,Cu  0,C   8)          125.2830         0.390160   
     36. A(I   2,Cu  0,I   3)          115.0989         0.379341   
     37. A(C   7,Cu  0,C   9)           54.8363         0.264925   
     38. A(C   7,Cu  0,C   8)           29.7991         0.291345   
     39. A(Cu  1,Cu  0,I   2)           57.2649         0.553885   
     40. A(C   8,Cu  0,C   9)           35.0263         0.366426   
     41. A(I   3,Cu  0,C   7)          144.0113         0.284076   
     42. A(I   2,Cu  0,C   9)          118.0606         0.350838   
     43. A(Cu  0,Cu  1,I   3)           65.2688         0.641818   
     44. A(Cu  0,Cu  1,I   2)           66.0952         0.645709   
     45. A(I   2,Cu  1,I   3)          131.3640         0.493764   
     46. A(Cu  0,I   2,Cu  1)           56.6399         0.429381   
     47. A(Cu  0,I   3,Cu  1)           56.8972         0.434259   
     48. A(C   5,C   4,C   9)          119.9218         0.429644   
     49. A(C   9,C   4,O  10)          120.8330         0.431788   
     50. A(C   5,C   4,O  10)          119.2428         0.425974   
     51. A(C   4,C   5,C   6)          119.4043         0.427954   
     52. A(C   6,C   5,O  15)          124.6507         0.434598   
     53. A(C   4,C   5,O  15)          115.9348         0.430430   
     54. A(C   7,C   6,H  20)          119.1504         0.355976   
     55. A(C   5,C   6,H  20)          120.3105         0.354535   
     56. A(C   5,C   6,C   7)          120.4949         0.433953   
     57. A(Cu  0,C   7,H  21)          114.4139         0.251072   
     58. A(Cu  0,C   7,C   6)          101.7003         0.299956   
     59. A(C   8,C   7,H  21)          119.9088         0.353455   
     60. A(C   6,C   7,C   8)          120.6331         0.433219   
     61. A(C   6,C   7,H  21)          119.4559         0.355457   
     62. A(Cu  0,C   7,C   8)           52.8505         0.298371   
     63. A(C   7,C   8,C   9)          118.9561         0.427445   
     64. A(Cu  0,C   8,C   9)           79.0247         0.416087   
     65. A(Cu  0,C   8,H  22)           99.2712         0.344459   
     66. A(C   9,C   8,H  22)          120.0265         0.350862   
     67. A(C   7,C   8,H  22)          120.6588         0.353329   
     68. A(Cu  0,C   8,C   7)           97.3504         0.419168   
     69. A(C   4,C   9,C   8)          120.5629         0.429857   
     70. A(C   8,C   9,H  23)          120.8072         0.350872   
     71. A(Cu  0,C   9,C   8)           65.9489         0.373380   
     72. A(C   4,C   9,H  23)          118.6100         0.355224   
     73. A(Cu  0,C   9,H  23)          102.5994         0.311112   
     74. A(Cu  0,C   9,C   4)          102.7341         0.378105   
     75. A(C   4,O  10,C  11)          114.5835         0.408651   
     76. A(H  13,C  11,H  14)          110.1622         0.290943   
     77. A(H  12,C  11,H  14)          109.7389         0.290668   
     78. A(O  10,C  11,H  14)          106.2034         0.336143   
     79. A(H  12,C  11,H  13)          109.2911         0.289908   
     80. A(O  10,C  11,H  13)          110.5865         0.335212   
     81. A(O  10,C  11,H  12)          110.8228         0.334877   
     82. A(C   5,O  15,C  16)          118.3895         0.416031   
     83. A(H  18,C  16,H  19)          109.7036         0.290882   
     84. A(H  17,C  16,H  19)          109.4863         0.290839   
     85. A(O  15,C  16,H  19)          105.6662         0.338712   
     86. A(H  17,C  16,H  18)          109.7902         0.289756   
     87. A(O  15,C  16,H  18)          110.8500         0.337372   
     88. A(O  15,C  16,H  17)          111.2581         0.337319   
     89. D(I   3,Cu  1,Cu  0,I   2)    179.9947         0.010000   
     90. D(I   2,Cu  1,Cu  0,I   3)   -179.9947         0.010000   
     91. D(I   3,Cu  1,Cu  0,C   7)   -149.4958         0.010000   
     92. D(I   3,Cu  1,Cu  0,C   9)     86.6106         0.010000   
     93. D(I   2,Cu  1,Cu  0,C   9)    -93.3841         0.010000   
     94. D(I   2,Cu  1,Cu  0,C   7)     30.5095         0.010000   
     95. D(Cu  1,I   2,Cu  0,C   9)    139.2776         0.010000   
     96. D(Cu  1,I   2,Cu  0,C   7)   -166.2863         0.010000   
     97. D(Cu  0,I   2,Cu  1,I   3)     -0.0064         0.010000   
     98. D(Cu  1,I   2,Cu  0,C   8)    179.8492         0.010000   
     99. D(Cu  1,I   2,Cu  0,I   3)      0.0049         0.010000   
    100. D(Cu  1,I   3,Cu  0,C   8)   -179.8587         0.010000   
    101. D(Cu  1,I   3,Cu  0,C   9)   -140.9516         0.010000   
    102. D(Cu  1,I   3,Cu  0,C   7)    156.4762         0.010000   
    103. D(Cu  1,I   3,Cu  0,I   2)     -0.0049         0.010000   
    104. D(Cu  0,I   3,Cu  1,I   2)      0.0064         0.010000   
    105. D(C   6,C   5,C   4,C   9)      0.3835         0.023132   
    106. D(O  15,C   5,C   4,O  10)      2.0609         0.023132   
    107. D(O  15,C   5,C   4,C   9)   -178.5068         0.023132   
    108. D(C   6,C   5,C   4,O  10)   -179.0488         0.023132   
    109. D(H  20,C   6,C   5,C   4)   -179.0820         0.025894   
    110. D(H  20,C   6,C   5,O  15)     -0.2952         0.025894   
    111. D(C   7,C   6,C   5,O  15)    177.2666         0.025894   
    112. D(C   7,C   6,C   5,C   4)     -1.5203         0.025894   
    113. D(C   8,C   7,Cu  0,I   2)   -156.8206         0.010000   
    114. D(C   8,C   7,Cu  0,Cu  1)    177.6106         0.010000   
    115. D(C   6,C   7,Cu  0,C   8)    119.7311         0.010000   
    116. D(C   6,C   7,Cu  0,I   2)    -37.0896         0.010000   
    117. D(C   6,C   7,Cu  0,I   3)    164.3313         0.010000   
    118. D(C   6,C   7,Cu  0,C   9)     81.4980         0.010000   
    119. D(C   6,C   7,Cu  0,Cu  1)    -62.6584         0.010000   
    120. D(Cu  0,C   7,C   6,H  20)    125.2238         0.029605   
    121. D(C   8,C   7,C   6,H  20)    178.7756         0.029605   
    122. D(C   8,C   7,C   6,C   5)      1.1858         0.029605   
    123. D(H  21,C   7,C   6,C   5)   -179.3589         0.029605   
    124. D(Cu  0,C   7,C   6,C   5)    -52.3660         0.029605   
    125. D(C   8,C   7,Cu  0,I   3)     44.6002         0.010000   
    126. D(H  22,C   8,C   7,Cu  0)   -105.3851         0.029640   
    127. D(C   9,C   8,C   7,H  21)   -179.1651         0.029640   
    128. D(C   9,C   8,C   7,C   6)      0.2878         0.029640   
    129. D(Cu  0,C   8,C   7,H  21)     99.3467         0.029640   
    130. D(Cu  0,C   8,C   7,C   6)    -81.2004         0.029640   
    131. D(H  22,C   8,Cu  1,I   3)    -28.6374         0.010000   
    132. D(H  22,C   8,Cu  1,I   2)    151.3150         0.010000   
    133. D(C   9,C   8,Cu  1,I   3)     90.5159         0.010000   
    134. D(C   9,C   8,Cu  1,I   2)    -89.5316         0.010000   
    135. D(C   7,C   8,Cu  1,I   3)   -151.4841         0.010000   
    136. D(C   7,C   8,Cu  1,I   2)     28.4684         0.010000   
    137. D(H  22,C   8,Cu  0,C   7)    122.8207         0.010000   
    138. D(H  22,C   8,Cu  0,I   3)    -28.8448         0.010000   
    139. D(H  22,C   8,Cu  0,I   2)    151.3174         0.010000   
    140. D(C   9,C   8,Cu  0,C   7)   -118.1791         0.010000   
    141. D(C   9,C   8,Cu  0,I   3)     90.1554         0.010000   
    142. D(C   9,C   8,C   7,Cu  0)     81.4882         0.029640   
    143. D(C   9,C   8,Cu  0,I   2)    -89.6824         0.010000   
    144. D(C   7,C   8,Cu  0,C   9)    118.1791         0.010000   
    145. D(C   7,C   8,Cu  0,I   2)     28.4967         0.010000   
    146. D(H  22,C   8,C   7,C   6)    173.4145         0.029640   
    147. D(C   7,C   8,Cu  0,I   3)   -151.6655         0.010000   
    148. D(C   4,C   9,Cu  0,C   7)    -85.6337         0.010000   
    149. D(C   4,C   9,Cu  0,I   3)    134.0091         0.010000   
    150. D(C   4,C   9,Cu  0,I   2)     -5.7085         0.010000   
    151. D(C   4,C   9,Cu  0,Cu  1)     66.3869         0.010000   
    152. D(H  23,C   9,C   8,Cu  0)    -90.6871         0.027145   
    153. D(C   4,C   9,C   8,H  22)   -174.5959         0.027145   
    154. D(C   4,C   9,C   8,C   7)     -1.4247         0.027145   
    155. D(Cu  0,C   9,C   8,H  22)     94.4426         0.027145   
    156. D(Cu  0,C   9,C   8,C   7)    -92.3862         0.027145   
    157. D(H  23,C   9,C   4,C   5)   -177.2976         0.029483   
    158. D(C   8,C   9,C   4,O  10)   -179.4873         0.029483   
    159. D(C   8,C   9,C   4,C   5)      1.0896         0.029483   
    160. D(Cu  0,C   9,C   4,O  10)   -110.0843         0.029483   
    161. D(Cu  0,C   9,C   4,C   5)     70.4926         0.029483   
    162. D(C   4,C   9,C   8,Cu  0)     90.9615         0.027145   
    163. D(C   8,C   9,Cu  0,I   3)   -107.9559         0.010000   
    164. D(C   8,C   9,Cu  0,I   2)    112.3265         0.010000   
    165. D(C   8,C   9,Cu  0,Cu  1)   -175.5781         0.010000   
    166. D(H  23,C   9,C   8,C   7)    176.9267         0.027145   
    167. D(C   4,C   9,Cu  0,C   8)   -118.0350         0.010000   
    168. D(C  11,O  10,C   4,C   9)     80.1364         0.028079   
    169. D(C  11,O  10,C   4,C   5)   -100.4366         0.028079   
    170. D(H  14,C  11,O  10,C   4)    179.8096         0.017917   
    171. D(H  13,C  11,O  10,C   4)     60.3001         0.017917   
    172. D(H  12,C  11,O  10,C   4)    -61.0600         0.017917   
    173. D(C  16,O  15,C   5,C   6)     -3.4048         0.031821   
    174. D(C  16,O  15,C   5,C   4)    175.4200         0.031821   
    175. D(H  19,C  16,O  15,C   5)   -177.7984         0.019560   
    176. D(H  18,C  16,O  15,C   5)    -59.0141         0.019560   
    177. D(H  17,C  16,O  15,C   5)     63.4604         0.019560   
    -----------------------------------------------------------------

Number of atoms                         .... 24
Number of degrees of freedom            .... 177


         *************************************************************
         *                GEOMETRY OPTIMIZATION CYCLE   1            *
         *************************************************************
---------------------------------
CARTESIAN COORDINATES (ANGSTROEM)
---------------------------------
  Cu    -0.982606   -0.654398    0.194752
  Cu     1.327080   -0.616109    1.094385
  I      0.209623    1.616472    1.080492
  I      0.524864   -2.873480    0.362103
  C     -3.583397    0.062582    1.587878
  C     -3.650879    1.372063    1.069030
  C     -3.443026    1.580078   -0.295185
  C     -3.140798    0.513989   -1.132769
  C     -3.063845   -0.788017   -0.629212
  C     -3.303960   -1.004353    0.742617
  O     -3.806177   -0.139118    2.916982
  C     -2.618217   -0.302192    3.702849
  H     -2.048989   -1.174824    3.370502
  H     -1.987909    0.586904    3.634999
  H     -2.950245   -0.448916    4.727894
  O     -3.895796    2.348357    1.963953
  C     -3.876658    3.697498    1.514940
  H     -4.664300    3.881682    0.779313
  H     -2.903505    3.951210    1.086584
  H     -4.057163    4.303460    2.398685
  H     -3.476654    2.577690   -0.705340
  H     -2.972706    0.695823   -2.185542
  H     -2.933756   -1.630563   -1.295604
  H     -3.300984   -2.004835    1.154696

----------------------------
CARTESIAN COORDINATES (A.U.)
----------------------------
  NO LB      ZA    FRAG     MASS         X           Y           Z
   0 Cu   29.0000    0    63.550   -1.856857   -1.236634    0.368027
   1 Cu   29.0000    0    63.550    2.507818   -1.164277    2.068089
   2 I    25.0000*   0   126.900    0.396131    3.054690    2.041833
   3 I    25.0000*   0   126.900    0.991849   -5.430090    0.684275
   4 C     6.0000    0    12.011   -6.771640    0.118262    3.000654
   5 C     6.0000    0    12.011   -6.899161    2.592823    2.020173
   6 C     6.0000    0    12.011   -6.506376    2.985915   -0.557820
   7 C     6.0000    0    12.011   -5.935248    0.971298   -2.140624
   8 C     6.0000    0    12.011   -5.789828   -1.489137   -1.189038
   9 C     6.0000    0    12.011   -6.243580   -1.897952    1.403343
  10 O     8.0000    0    15.999   -7.192632   -0.262896    5.512298
  11 C     6.0000    0    12.011   -4.947712   -0.571061    6.997370
  12 H     1.0000    0     1.008   -3.872028   -2.220095    6.369325
  13 H     1.0000    0     1.008   -3.756604    1.109089    6.869153
  14 H     1.0000    0     1.008   -5.575155   -0.848328    8.934424
  15 O     8.0000    0    15.999   -7.361988    4.437752    3.711333
  16 C     6.0000    0    12.011   -7.325822    6.987258    2.862822
  17 H     1.0000    0     1.008   -8.814249    7.335316    1.472688
  18 H     1.0000    0     1.008   -5.486829    7.466705    2.053345
  19 H     1.0000    0     1.008   -7.666926    8.132360    4.532858
  20 H     1.0000    0     1.008   -6.569924    4.871128   -1.332899
  21 H     1.0000    0     1.008   -5.617601    1.314914   -4.130075
  22 H     1.0000    0     1.008   -5.543995   -3.081318   -2.448337
  23 H     1.0000    0     1.008   -6.237956   -3.788590    2.182059
* core charge reduced due to ECP

--------------------------------
INTERNAL COORDINATES (ANGSTROEM)
--------------------------------
 Cu     0   0   0     0.000000000000     0.00000000     0.00000000
 Cu     1   0   0     2.479003605060     0.00000000     0.00000000
 I      2   1   0     2.496661628284    66.09520392     0.00000000
 I      2   1   3     2.505097245492    65.26879745   179.99470724
 C      1   2   3     3.036276399959   128.89623511   298.32070185
 C      5   1   2     1.410141150857    95.24709773    97.88678741
 C      6   5   1     1.395548510781   119.40425374    47.52576408
 C      7   6   5     1.389041108496   120.49485787   358.47971980
 C      8   7   6     1.398110414954   120.63310452     1.18580251
 C      5   1   2     1.389567912646    50.75302350   222.76243812
 O      5   1   2     1.362656528190   123.54672968   327.38283618
 C     11   5   1     1.433676532700   114.58347639    19.36345455
 H     12  11   5     1.093599421295   110.82276783   298.94000203
 H     12  11   5     1.091963369188   110.58650842    60.30008118
 H     12  11   5     1.087422583967   106.20336838   179.80961534
 O      6   5   1     1.346856790850   115.93481015   228.63546850
 C     16   6   5     1.422026416148   118.38952548   175.42003473
 H     17  16   6     1.093366465392   111.25810574    63.46043560
 H     17  16   6     1.093108176786   110.84998956   300.98587426
 H     17  16   6     1.086635936856   105.66616722   182.20157871
 H      7   6   5     1.079160094487   120.31052386   180.91797301
 H      8   7   6     1.081502465760   119.45585156   180.64109921
 H      9   8   7     1.082074930790   120.65878089   173.41447176
 H     10   5   1     1.082027387043   118.60998021   112.20979249

---------------------------
INTERNAL COORDINATES (A.U.)
---------------------------
 Cu     0   0   0     0.000000000000     0.00000000     0.00000000
 Cu     1   0   0     4.684637898567     0.00000000     0.00000000
 I      2   1   0     4.718006726526    66.09520392     0.00000000
 I      2   1   3     4.733947732820    65.26879745   179.99470724
 C      1   2   3     5.737730862811   128.89623511   298.32070185
 C      5   1   2     2.664780585293    95.24709773    97.88678741
 C      6   5   1     2.637204491978   119.40425374    47.52576408
 C      7   6   5     2.624907283815   120.49485787   358.47971980
 C      8   7   6     2.642045789247   120.63310452     1.18580251
 C      5   1   2     2.625902799386    50.75302350   222.76243812
 O      5   1   2     2.575047652879   123.54672968   327.38283618
 C     11   5   1     2.709256011433   114.58347639    19.36345455
 H     12  11   5     2.066603406462   110.82276783   298.94000203
 H     12  11   5     2.063511716040   110.58650842    60.30008118
 H     12  11   5     2.054930875538   106.20336838   179.80961534
 O      6   5   1     2.545190476319   115.93481015   228.63546850
 C     16   6   5     2.687240481721   118.38952548   175.42003473
 H     17  16   6     2.066163183604   111.25810574    63.46043560
 H     17  16   6     2.065675088875   110.84998956   300.98587426
 H     17  16   6     2.053444327936   105.66616722   182.20157871
 H      7   6   5     2.039317033237   120.31052386   180.91797301
 H      8   7   6     2.043743473447   119.45585156   180.64109921
 H      9   8   7     2.044825275575   120.65878089   173.41447176
 H     10   5   1     2.044735430914   118.60998021   112.20979249

---------------------
BASIS SET INFORMATION
---------------------
There are 5 groups of distinct atoms

 Group   1 Type Cu  : 17s11p7d1f contracted to 6s4p4d1f pattern {842111/6311/4111/1}
 Group   2 Type I   : 11s10p8d2f contracted to 6s5p3d2f pattern {521111/34111/611/11}
 Group   3 Type C   : 11s6p2d1f contracted to 5s3p2d1f pattern {62111/411/11/1}
 Group   4 Type O   : 11s6p2d1f contracted to 5s3p2d1f pattern {62111/411/11/1}
 Group   5 Type H   : 5s1p contracted to 3s1p pattern {311/1}

Atom   0Cu   basis set group =>   1
Atom   1Cu   basis set group =>   1
Atom   2I    basis set group =>   2
Atom   3I    basis set group =>   2
Atom   4C    basis set group =>   3
Atom   5C    basis set group =>   3
Atom   6C    basis set group =>   3
Atom   7C    basis set group =>   3
Atom   8C    basis set group =>   3
Atom   9C    basis set group =>   3
Atom  10O    basis set group =>   4
Atom  11C    basis set group =>   3
Atom  12H    basis set group =>   5
Atom  13H    basis set group =>   5
Atom  14H    basis set group =>   5
Atom  15O    basis set group =>   4
Atom  16C    basis set group =>   3
Atom  17H    basis set group =>   5
Atom  18H    basis set group =>   5
Atom  19H    basis set group =>   5
Atom  20H    basis set group =>   5
Atom  21H    basis set group =>   5
Atom  22H    basis set group =>   5
Atom  23H    basis set group =>   5
---------------------------------
AUXILIARY/J BASIS SET INFORMATION
---------------------------------
There are 5 groups of distinct atoms

 Group   1 Type Cu  : 19s5p5d3f3g contracted to 8s5p4d3f3g pattern {121111111/11111/2111/111/111}
 Group   2 Type I   : 11s5p5d3f1g contracted to 8s4p3d2f1g pattern {41111111/2111/311/21/1}
 Group   3 Type C   : 12s5p4d2f1g contracted to 6s4p3d1f1g pattern {711111/2111/211/2/1}
 Group   4 Type O   : 12s5p4d2f1g contracted to 6s4p3d1f1g pattern {711111/2111/211/2/1}
 Group   5 Type H   : 5s2p1d contracted to 3s1p1d pattern {311/2/1}

Atom   0Cu   basis set group =>   1
Atom   1Cu   basis set group =>   1
Atom   2I    basis set group =>   2
Atom   3I    basis set group =>   2
Atom   4C    basis set group =>   3
Atom   5C    basis set group =>   3
Atom   6C    basis set group =>   3
Atom   7C    basis set group =>   3
Atom   8C    basis set group =>   3
Atom   9C    basis set group =>   3
Atom  10O    basis set group =>   4
Atom  11C    basis set group =>   3
Atom  12H    basis set group =>   5
Atom  13H    basis set group =>   5
Atom  14H    basis set group =>   5
Atom  15O    basis set group =>   4
Atom  16C    basis set group =>   3
Atom  17H    basis set group =>   5
Atom  18H    basis set group =>   5
Atom  19H    basis set group =>   5
Atom  20H    basis set group =>   5
Atom  21H    basis set group =>   5
Atom  22H    basis set group =>   5
Atom  23H    basis set group =>   5
-------------------------
ECP PARAMETER INFORMATION
-------------------------

 Group 1, Type I  ECP Def2-ECP (replacing 28 core electrons, lmax=3)

Atom   2I    ECP group =>   1
Atom   3I    ECP group =>   1



           ************************************************************
           *        Program running with 8 parallel MPI-processes     *
           *              working on a common directory               *
           ************************************************************
------------------------------------------------------------------------------
                             ORCA STARTUP CALCULATIONS
                           -- RI-GTO INTEGRALS CHOSEN --
------------------------------------------------------------------------------
------------------------------------------------------------------------------
                   ___                                                        
                  /   \      - P O W E R E D   B Y -                         
                 /     \                                                     
                 |  |  |   _    _      __       _____    __    __             
                 |  |  |  | |  | |    /  \     |  _  \  |  |  /  |          
                  \  \/   | |  | |   /    \    | | | |  |  | /  /          
                 / \  \   | |__| |  /  /\  \   | |_| |  |  |/  /          
                |  |  |   |  __  | /  /__\  \  |    /   |      \           
                |  |  |   | |  | | |   __   |  |    \   |  |\   \          
                \     /   | |  | | |  |  |  |  | |\  \  |  | \   \       
                 \___/    |_|  |_| |__|  |__|  |_| \__\ |__|  \__/        
                                                                              
                      - O R C A' S   B I G   F R I E N D -                    
                                      &                                       
                       - I N T E G R A L  F E E D E R -                       
                                                                              
 v1 FN, 2020, v2 2021, v3 2022-2024                                           
------------------------------------------------------------------------------


----------------------
SHARK INTEGRAL PACKAGE
----------------------

Number of atoms                             ...     24
Number of basis functions                   ...    560
Number of shells                            ...    212
Maximum angular momentum                    ...      3
Integral batch strategy                     ... SHARK/LIBINT Hybrid
RI-J (if used) integral strategy            ... SPLIT-RIJ (Revised 2003 algorithm where possible)
Printlevel                                  ...      1
Contraction scheme used                     ... SEGMENTED contraction
Prescreening option                         ... SCHWARTZ
   Thresh                                   ... 2.500e-11
   Tcut                                     ... 2.500e-12
   Tpresel                                  ... 2.500e-12 
Coulomb Range Separation                    ... NOT USED
Exchange Range Separation                   ... NOT USED
Multipole approximations                    ... NOT USED
Finite Nucleus Model                        ... NOT USED
CABS basis                                  ... NOT available
Auxiliary Coulomb fitting basis             ... AVAILABLE
   # of basis functions in Aux-J            ...    898
   # of shells in Aux-J                     ...    282
   Maximum angular momentum in Aux-J        ...      4
Auxiliary J/K fitting basis                 ... NOT available
Auxiliary Correlation fitting basis         ... NOT available
Auxiliary 'external' fitting basis          ... NOT available

Checking pre-screening integrals            ... done (  0.0 sec) Dimension = 212
   => SHARK Basis and OBASIS are compatible. Storing Pre-screening
Shell pair information
Shell pair cut-off parameter TPreSel        ...   2.5e-12
Total number of shell pairs                 ...     22578
Shell pairs after pre-screening             ...     17768
Total number of primitive shell pairs       ...     78253
Primitive shell pairs kept                  ...     40141
          la=0 lb=0:   4118 shell pairs
          la=1 lb=0:   4771 shell pairs
          la=1 lb=1:   1419 shell pairs
          la=2 lb=0:   2835 shell pairs
          la=2 lb=1:   1660 shell pairs
          la=2 lb=2:    506 shell pairs
          la=3 lb=0:   1197 shell pairs
          la=3 lb=1:    721 shell pairs
          la=3 lb=2:    440 shell pairs
          la=3 lb=3:    101 shell pairs

Checking whether 4 symmetric matrices of dimension 560 fit in memory
:Max Core in MB      =   5000.00
 MB in use           =     26.09
 MB left             =   4973.91
 MB needed           =      4.79
 Data fit in memory  = YES
Calculating RI/J V-Matrix + Cholesky decomp.... done (  0.0 sec)
Calculating Nuclear repulsion               ... done (  0.0 sec) ENN=   2318.209789880540 Eh

Diagonalization of the overlap matrix:
Smallest eigenvalue                        ... 6.660e-06
Time for diagonalization                   ...    0.022 sec
Threshold for overlap eigenvalues          ... 1.000e-07
Number of eigenvalues below threshold      ... 0
Time for construction of square roots      ...    0.010 sec
Total time needed                          ...    0.033 sec

-------------------
DFT GRID GENERATION
-------------------

General Integration Accuracy     IntAcc      ... 4.959
Radial Grid Type                 RadialGrid  ... OptM3 with GC (2021)
Angular Grid (max. ang.)         AngularGrid ... 6 (Lebedev-590)
Angular grid pruning method      GridPruning ... 4 (adaptive)
Weight generation scheme         WeightScheme... mBecke (2022)
Basis function cutoff            BFCut       ... 1.0000e-11
Integration weight cutoff        WCut        ... 1.0000e-14
Partially contracted basis set               ... off
Rotationally invariant grid construction     ... off
Angular grids for H and He will be reduced by one unit
Core-polarized basis detected: some atoms will have their core
                               angular grid increased.

Total number of grid points                  ...   330438
Total number of batches                      ...     5175
Average number of points per batch           ...       63
Average number of grid points per atom       ...    13768

--------------------
COSX GRID GENERATION
--------------------

GRIDX 1
-------
General Integration Accuracy     IntAcc      ... 4.020
Radial Grid Type                 RadialGrid  ... OptM3 with GC (2021)
Angular Grid (max. ang.)         AngularGrid ... 2 (Lebedev-110)
Angular grid pruning method      GridPruning ... 4 (adaptive)
Weight generation scheme         WeightScheme... mBecke (2022)
Basis function cutoff            BFCut       ... 1.0000e-11
Integration weight cutoff        WCut        ... 1.0000e-14
Partially contracted basis set               ... on
Rotationally invariant grid construction     ... off
Angular grids for H and He will be reduced by one unit
Core-polarized basis detected: some atoms will have their core
                               angular grid increased.

Total number of grid points                  ...    48064
Total number of batches                      ...      387
Average number of points per batch           ...      124
Average number of grid points per atom       ...     2003
UseSFitting                                  ... on

GRIDX 2
-------
General Integration Accuracy     IntAcc      ... 4.338
Radial Grid Type                 RadialGrid  ... OptM3 with GC (2021)
Angular Grid (max. ang.)         AngularGrid ... 3 (Lebedev-194)
Angular grid pruning method      GridPruning ... 4 (adaptive)
Weight generation scheme         WeightScheme... mBecke (2022)
Basis function cutoff            BFCut       ... 1.0000e-11
Integration weight cutoff        WCut        ... 1.0000e-14
Partially contracted basis set               ... on
Rotationally invariant grid construction     ... off
Angular grids for H and He will be reduced by one unit
Core-polarized basis detected: some atoms will have their core
                               angular grid increased.

Total number of grid points                  ...    77789
Total number of batches                      ...      619
Average number of points per batch           ...      125
Average number of grid points per atom       ...     3241
UseSFitting                                  ... on

GRIDX 3
-------
General Integration Accuracy     IntAcc      ... 4.871
Radial Grid Type                 RadialGrid  ... OptM3 with GC (2021)
Angular Grid (max. ang.)         AngularGrid ... 4 (Lebedev-302)
Angular grid pruning method      GridPruning ... 4 (adaptive)
Weight generation scheme         WeightScheme... mBecke (2022)
Basis function cutoff            BFCut       ... 1.0000e-11
Integration weight cutoff        WCut        ... 1.0000e-14
Partially contracted basis set               ... on
Rotationally invariant grid construction     ... off
Angular grids for H and He will be reduced by one unit
Core-polarized basis detected: some atoms will have their core
                               angular grid increased.

Total number of grid points                  ...   146067
Total number of batches                      ...     1153
Average number of points per batch           ...      126
Average number of grid points per atom       ...     6086
UseSFitting                                  ... on
Grids setup in   6.0 sec
Initializing property integral containers    ... done (  0.0 sec)

SHARK setup successfully completed in   6.8 seconds

Maximum memory used throughout the entire STARTUP-calculation: 105.3 MB


           ************************************************************
           *        Program running with 8 parallel MPI-processes     *
           *              working on a common directory               *
           ************************************************************
-------------------------------------------------------------------------------
                                 ORCA GUESS
                   Start orbitals & Density for SCF / CASSCF
-------------------------------------------------------------------------------

------------
SCF SETTINGS
------------
Hamiltonian:
 Density Functional     Method          .... DFT(GTOs)
 Exchange Functional    Exchange        .... B88
   X-Alpha parameter    XAlpha          ....  0.666667
   Becke's b parameter  XBeta           ....  0.004200
 Correlation Functional Correlation     .... LYP
 LDA part of GGA corr.  LDAOpt          .... VWN-5
 Gradients option       PostSCFGGA      .... off
 Hybrid DFT is turned on
   Fraction HF Exchange ScalHFX         ....  0.200000
   Scaling of DF-GGA-X  ScalDFX         ....  0.720000
   Scaling of DF-GGA-C  ScalDFC         ....  0.810000
   Scaling of DF-LDA-C  ScalLDAC        ....  1.000000
   Perturbative correction              ....  0.000000
   NL short-range parameter             ....  4.800000
 RI-approximation to the Coulomb term is turned on
   Number of AuxJ basis functions       .... 898
   RIJ-COSX (HFX calculated with COS-X)).... on


General Settings:
 Integral files         IntName         .... cu2i2_veratrole_pi_opt_freq_v2
 Hartree-Fock type      HFTyp           .... RHF
 Total Charge           Charge          ....    0
 Multiplicity           Mult            ....    1
 Number of Electrons    NEL             ....  182
 Basis Dimension        Dim             ....  560
 Nuclear Repulsion      ENuc            ....   2318.2097898805 Eh

Convergence Acceleration:
 AO-DIIS                CNVDIIS         .... on
   Start iteration      DIISMaxIt       ....    12
   Startup error        DIISStart       ....  0.200000
   # of expansion vecs  DIISMaxEq       ....     5
   Bias factor          DIISBfac        ....   1.050
   Max. coefficient     DIISMaxC        ....  10.000
 MO-DIIS                CNVKDIIS        .... off
 Trust-Rad. Augm. Hess. CNVTRAH         .... auto
   Auto Start mean grad. ratio tolernc. ....  1.125000
   Auto Start start iteration           ....    50
   Auto Start num. interpolation iter.  ....    10
   Max. Number of Micro iterations      ....    24
   Max. Number of Macro iterations      .... Maxiter - #DIIS iter
   Number of Davidson start vectors     ....     2
   Converg. threshold    (grad. norm)   ....   1.000e-05
   Grad. Scal. Fac. for Micro threshold ....   0.100
   Minimum threshold for Micro iter.    ....   1.000e-02
   NR start threshold (gradient norm)   ....   1.000e-04
   Initial trust radius                 ....   0.400
   Minimum AH scaling param. (alpha)    ....   1.000
   Maximum AH scaling param. (alpha)    .... 1000.000
   Quad. conv. algorithm                .... NR
   White noise on init. David. guess    .... on
   Maximum white noise                  ....   0.010
   Pseudo random numbers                .... off
   Inactive MOs                         .... canonical
   Orbital update algorithm             .... Taylor
   Preconditioner                       .... Diag
   Full preconditioner red. dimension   ....   250
 SOSCF                 CNVSOSCF           .... on
   Start iteration     SOSCFMaxIt         ....   150
   Startup grad/error  SOSCFStart         ....  0.003300
   Hessian update      SOSCFHessUp        .... L-BFGS
   Autom. constraints  SOSCFAutoConstrain .... off
 Level Shifting         CNVShift        .... on
   Level shift para.    LevelShift      ....    0.2500
   Turn off err/grad.   ShiftErr        ....    0.0010
 Zerner damping         CNVZerner       .... off
 Static damping         CNVDamp         .... on
   Fraction old density DampFac         ....    0.7000
   Max. Damping (<1)    DampMax         ....    0.9800
   Min. Damping (>=0)   DampMin         ....    0.0000
   Turn off err/grad.   DampErr         ....    0.1000

SCF Procedure:
 Maximum # iterations   MaxIter         ....   125
 SCF integral mode      SCFMode         .... Direct
   Integral package                     .... SHARK and LIBINT hybrid scheme
 Reset frequency        DirectResetFreq ....    20
 Integral Threshold     Thresh          ....  2.500e-11 Eh
 Primitive CutOff       TCut            ....  2.500e-12 Eh

Convergence Tolerance:
 Convergence Check Mode ConvCheckMode   .... Total+1el-Energy
 Convergence forced     ConvForced      .... 0
 Energy Change          TolE            ....  1.000e-08 Eh
 1-El. energy change                    ....  1.000e-05 Eh
 Orbital Gradient       TolG            ....  1.000e-05
 Orbital Rotation angle TolX            ....  1.000e-05
 DIIS Error             TolErr          ....  5.000e-07

------------------------------
INITIAL GUESS: MODEL POTENTIAL
------------------------------
Loading Hartree-Fock densities                     ... done
Atomic calculation to generate a density for atom 2 (I  with ECP)
  Multiplicity assumed   :    2
  Atomic configuration   : 1s2 2s2 2p6 3s2 3p6 4s2 3d10 4p6 5s2 4d10 5p5 
  Number of open shells  : 1
  Command: /opt/orca/orca cu2i2_veratrole_pi_opt_freq_v2_atom53.inp "" > cu2i2_veratrole_pi_opt_freq_v2_atom53.out
Returned from the atomic calculation with res=0
Calculating cut-offs                               ... done
Initializing the effective Hamiltonian             ... done
Setting up the integral package (SHARK)            ... done
Starting the Coulomb interaction                   ... done (   0.2 sec)
Making the grid                                    ... done (   0.3 sec)
Mapping shells                                     ... done
Starting the XC term evaluation                    ... done (   0.1 sec)
  promolecular density results
     # of electrons  =    237.991345687
     EX              =   -540.084959255
     EC              =    -10.693684000
     EX+EC           =   -550.778643255
Transforming the Hamiltonian                       ... done (   0.0 sec)
Diagonalizing the Hamiltonian                      ... done (   0.0 sec)
Back transforming the eigenvectors                 ... done (   0.0 sec)
Now organizing SCF variables                       ... done
                      ------------------
                      INITIAL GUESS DONE (   2.0 sec)
                      ------------------
             **** ENERGY FILE WAS UPDATED (cu2i2_veratrole_pi_opt_freq_v2.en.tmp) ****
Finished Guess after   2.3 sec
Maximum memory used throughout the entire GUESS-calculation: 39.0 MB


           ************************************************************
           *        Program running with 8 parallel MPI-processes     *
           *              working on a common directory               *
           ************************************************************

-------------------------------------------------------------------------------------------
                                      ORCA LEAN-SCF
                              memory conserving SCF solver
-------------------------------------------------------------------------------------------

----------------------------------------D-I-I-S--------------------------------------------
Iteration    Energy (Eh)           Delta-E    RMSDP     MaxDP     DIISErr   Damp  Time(sec)
-------------------------------------------------------------------------------------------
               ***  Starting incremental Fock matrix formation  ***
    1    -4337.3285357496397410     0.00e+00  5.17e-03  1.49e-01  5.83e-01  0.700   9.3
    2    -4337.4928214107740132    -1.64e-01  4.33e-03  1.51e-01  3.94e-01  0.700   5.2
    3    -4337.5650136562171610    -7.22e-02  2.01e-03  5.86e-02  2.67e-01  0.700   4.8
                               ***Turning on AO-DIIS***
    4    -4337.6090018513677933    -4.40e-02  8.81e-04  2.57e-02  1.82e-01  0.700   4.6
    5    -4337.6393931107068056    -3.04e-02  7.67e-04  2.77e-02  1.28e-01  0.700   4.4
    6    -4337.6606378974684048    -2.12e-02  5.37e-04  1.83e-02  9.02e-02  0.700   4.2
    7    -4337.6756118291114035    -1.50e-02  1.12e-03  3.16e-02  6.34e-02  0.000   4.0
    8    -4337.7104969112851904    -3.49e-02  1.23e-04  2.48e-03  3.92e-03  0.000   4.5
    9    -4337.7104460303962696     5.09e-05  6.77e-05  1.62e-03  7.82e-03  0.000   4.8
                              *** Initializing SOSCF ***
---------------------------------------S-O-S-C-F--------------------------------------
Iteration    Energy (Eh)           Delta-E    RMSDP     MaxDP     MaxGrad    Time(sec)
--------------------------------------------------------------------------------------
   10    -4337.7105386632320005    -9.26e-05  2.48e-05  6.12e-04  9.83e-04     3.4
               *** Restarting incremental Fock matrix formation ***
   11    -4337.7105449243690600    -6.26e-06  2.76e-05  5.18e-04  8.90e-05     9.3
   12    -4337.7105438648350173     1.06e-06  1.32e-05  3.68e-04  2.37e-04     5.2
   13    -4337.7105452226323905    -1.36e-06  2.37e-05  5.68e-04  3.12e-05     4.6
   14    -4337.7105451309453201     9.17e-08  9.30e-06  2.00e-04  3.46e-05     4.8
   15    -4337.7105453165413564    -1.86e-07  1.94e-05  5.48e-04  7.92e-06     4.4
   16    -4337.7105453293515893    -1.28e-08  5.62e-06  9.38e-05  1.55e-05     3.9
   17    -4337.7105453526219208    -2.33e-08  1.57e-05  5.16e-04  4.80e-06     3.5
   18    -4337.7105453869344274    -3.43e-08  4.39e-06  9.84e-05  1.12e-05     3.5
   19    -4337.7105453438680343     4.31e-08  1.71e-05  5.10e-04  7.25e-07     3.0
                  *** Gradient check signals convergence ***

               *****************************************************
               *                     SUCCESS                       *
               *           SCF CONVERGED AFTER  19 CYCLES          *
               *****************************************************

Recomputing exchange energy using gridx3       ... done (   14.115 sec)
Old exchange energy                            :    -47.036061156 Eh
New exchange energy                            :    -47.036056482 Eh
Exchange energy change after final integration :      0.000004674 Eh
Total energy after final integration           :  -4337.710540668 Eh
             **** ENERGY FILE WAS UPDATED (cu2i2_veratrole_pi_opt_freq_v2.en.tmp) ****

----------------
TOTAL SCF ENERGY
----------------

Total Energy       :      -4337.71054066787383 Eh         -118035.10460 eV

Components:
Nuclear Repulsion  :       2318.20978988053957 Eh           63081.69539 eV
Electronic Energy  :      -6655.92033522260044 Eh         -181116.80012 eV
One Electron Energy:     -10862.96115664594981 Eh         -295596.20089 eV
Two Electron Energy:       4207.04082142334937 Eh          114479.40077 eV

Virial components:
Potential Energy   :      -8300.26725653590984 Eh         -225861.75464 eV
Kinetic Energy     :       3962.55671586803510 Eh          107826.65004 eV
Virial Ratio       :          2.09467468902023

DFT components:
N(Alpha)           :       91.000021869575 electrons
N(Beta)            :       91.000021869575 electrons
N(Total)           :      182.000043739149 electrons
E(X)               :     -187.498505391924 Eh       
E(C)               :       -8.503808468480 Eh       
E(XC)              :     -196.002313860404 Eh       

---------------
SCF CONVERGENCE
---------------

  Last Energy change         ...   -4.3066e-08  Tolerance :   1.0000e-08
  Last MAX-Density change    ...    5.1030e-04  Tolerance :   1.0000e-07
  Last RMS-Density change    ...    1.7069e-05  Tolerance :   5.0000e-09
  Last DIIS Error            ...    9.8290e-04  Tolerance :   5.0000e-07
  Last Orbital Gradient      ...    7.2539e-07  Tolerance :   1.0000e-05
  Last Orbital Rotation      ...    8.2543e-07  Tolerance :   1.0000e-05


----------------
ORBITAL ENERGIES
----------------

  NO   OCC          E(Eh)            E(eV) 
   0   2.0000    -323.013430     -8789.6423 
   1   2.0000    -323.008755     -8789.5151 
   2   2.0000     -38.807176     -1055.9970 
   3   2.0000     -38.800971     -1055.8281 
   4   2.0000     -34.011830      -925.5089 
   5   2.0000     -34.011521      -925.5005 
   6   2.0000     -34.011486      -925.4996 
   7   2.0000     -34.005829      -925.3456 
   8   2.0000     -34.005583      -925.3390 
   9   2.0000     -34.005167      -925.3276 
  10   2.0000     -19.176511      -521.8194 
  11   2.0000     -19.151454      -521.1376 
  12   2.0000     -10.256903      -279.1045 
  13   2.0000     -10.247662      -278.8531 
  14   2.0000     -10.236931      -278.5611 
  15   2.0000     -10.221204      -278.1331 
  16   2.0000     -10.206099      -277.7221 
  17   2.0000     -10.204548      -277.6799 
  18   2.0000     -10.203463      -277.6504 
  19   2.0000     -10.195385      -277.4305 
  20   2.0000      -6.817251      -185.5068 
  21   2.0000      -6.817197      -185.5054 
  22   2.0000      -4.836015      -131.5947 
  23   2.0000      -4.835890      -131.5913 
  24   2.0000      -4.833771      -131.5336 
  25   2.0000      -4.833687      -131.5313 
  26   2.0000      -4.831638      -131.4756 
  27   2.0000      -4.831625      -131.4752 
  28   2.0000      -4.298239      -116.9610 
  29   2.0000      -4.292692      -116.8101 
  30   2.0000      -2.793703       -76.0205 
  31   2.0000      -2.793019       -76.0019 
  32   2.0000      -2.790020       -75.9203 
  33   2.0000      -2.788637       -75.8827 
  34   2.0000      -2.787006       -75.8383 
  35   2.0000      -2.784637       -75.7738 
  36   2.0000      -1.884981       -51.2929 
  37   2.0000      -1.884817       -51.2885 
  38   2.0000      -1.884314       -51.2748 
  39   2.0000      -1.884180       -51.2712 
  40   2.0000      -1.882517       -51.2259 
  41   2.0000      -1.882434       -51.2236 
  42   2.0000      -1.880420       -51.1688 
  43   2.0000      -1.880363       -51.1673 
  44   2.0000      -1.880141       -51.1612 
  45   2.0000      -1.880105       -51.1602 
  46   2.0000      -1.093741       -29.7622 
  47   2.0000      -1.061822       -28.8937 
  48   2.0000      -0.880325       -23.9549 
  49   2.0000      -0.782939       -21.3049 
  50   2.0000      -0.776323       -21.1248 
  51   2.0000      -0.722795       -19.6682 
  52   2.0000      -0.699968       -19.0471 
  53   2.0000      -0.671253       -18.2657 
  54   2.0000      -0.665902       -18.1201 
  55   2.0000      -0.628784       -17.1101 
  56   2.0000      -0.617725       -16.8091 
  57   2.0000      -0.559170       -15.2158 
  58   2.0000      -0.524747       -14.2791 
  59   2.0000      -0.518960       -14.1216 
  60   2.0000      -0.493284       -13.4229 
  61   2.0000      -0.486314       -13.2333 
  62   2.0000      -0.468682       -12.7535 
  63   2.0000      -0.466245       -12.6872 
  64   2.0000      -0.451976       -12.2989 
  65   2.0000      -0.434764       -11.8305 
  66   2.0000      -0.412834       -11.2338 
  67   2.0000      -0.408475       -11.1152 
  68   2.0000      -0.392020       -10.6674 
  69   2.0000      -0.367709       -10.0059 
  70   2.0000      -0.361842        -9.8462 
  71   2.0000      -0.348580        -9.4853 
  72   2.0000      -0.339048        -9.2260 
  73   2.0000      -0.331921        -9.0320 
  74   2.0000      -0.317684        -8.6446 
  75   2.0000      -0.306496        -8.3402 
  76   2.0000      -0.303128        -8.2485 
  77   2.0000      -0.301776        -8.2117 
  78   2.0000      -0.296246        -8.0613 
  79   2.0000      -0.286317        -7.7911 
  80   2.0000      -0.280912        -7.6440 
  81   2.0000      -0.279357        -7.6017 
  82   2.0000      -0.277579        -7.5533 
  83   2.0000      -0.275630        -7.5003 
  84   2.0000      -0.270591        -7.3632 
  85   2.0000      -0.262049        -7.1307 
  86   2.0000      -0.253996        -6.9116 
  87   2.0000      -0.239501        -6.5172 
  88   2.0000      -0.233716        -6.3597 
  89   2.0000      -0.231069        -6.2877 
  90   2.0000      -0.226557        -6.1649 
  91   0.0000      -0.049966        -1.3596 
  92   0.0000      -0.042512        -1.1568 
  93   0.0000      -0.036114        -0.9827 
  94   0.0000      -0.013194        -0.3590 
  95   0.0000       0.024397         0.6639 
  96   0.0000       0.027336         0.7439 
  97   0.0000       0.036242         0.9862 
  98   0.0000       0.047547         1.2938 
  99   0.0000       0.058561         1.5935 
 100   0.0000       0.064270         1.7489 
 101   0.0000       0.066840         1.8188 
*Only the first 10 virtual orbitals were printed.

                    ********************************
                    * MULLIKEN POPULATION ANALYSIS *
                    ********************************

-----------------------
MULLIKEN ATOMIC CHARGES
-----------------------
   0 Cu:    0.195418
   1 Cu:    0.107074
   2 I :   -0.301474
   3 I :   -0.283642
   4 C :    0.312593
   5 C :    0.201968
   6 C :   -0.230370
   7 C :   -0.103848
   8 C :   -0.034700
   9 C :   -0.222757
  10 O :   -0.305150
  11 C :   -0.181517
  12 H :    0.114039
  13 H :    0.133566
  14 H :    0.124700
  15 O :   -0.250080
  16 C :   -0.203700
  17 H :    0.122541
  18 H :    0.129987
  19 H :    0.138852
  20 H :    0.127993
  21 H :    0.128862
  22 H :    0.141328
  23 H :    0.138319
Sum of atomic charges:    0.0000000

--------------------------------
MULLIKEN REDUCED ORBITAL CHARGES
--------------------------------
  0 Cus       :     6.555856  s :     6.555856
      pz      :     4.070067  p :    12.391991
      px      :     4.160887
      py      :     4.161037
      dz2     :     1.981416  d :     9.856679
      dxz     :     1.962772
      dyz     :     1.993144
      dx2y2   :     1.954210
      dxy     :     1.965137
      f0      :     0.000006  f :     0.000056
      f+1     :     0.000007
      f-1     :     0.000003
      f+2     :     0.000009
      f-2     :     0.000006
      f+3     :     0.000015
      f-3     :     0.000010

  1 Cus       :     6.647971  s :     6.647971
      pz      :     4.056613  p :    12.343389
      px      :     4.072664
      py      :     4.214113
      dz2     :     1.983488  d :     9.901512
      dxz     :     1.990829
      dyz     :     1.990148
      dx2y2   :     1.942182
      dxy     :     1.994866
      f0      :     0.000006  f :     0.000053
      f+1     :     0.000004
      f-1     :     0.000008
      f+2     :     0.000006
      f-2     :     0.000006
      f+3     :     0.000010
      f-3     :     0.000013

  2 I s       :     3.944583  s :     3.944583
      pz      :     3.923355  p :    11.308489
      px      :     3.797301
      py      :     3.587833
      dz2     :     2.003676  d :    10.041389
      dxz     :     2.004340
      dyz     :     2.010430
      dx2y2   :     2.013370
      dxy     :     2.009572
      f0      :     0.000735  f :     0.007014
      f+1     :     0.000353
      f-1     :     0.001043
      f+2     :     0.000690
      f-2     :     0.000850
      f+3     :     0.001536
      f-3     :     0.001808

  3 I s       :     3.943103  s :     3.943103
      pz      :     3.908631  p :    11.293008
      px      :     3.804322
      py      :     3.580055
      dz2     :     2.004170  d :    10.040574
      dxz     :     2.003361
      dyz     :     2.009726
      dx2y2   :     2.012748
      dxy     :     2.010570
      f0      :     0.000732  f :     0.006957
      f+1     :     0.000298
      f-1     :     0.001124
      f+2     :     0.000775
      f-2     :     0.000867
      f+3     :     0.001449
      f-3     :     0.001712

  4 C s       :     3.007010  s :     3.007010
      pz      :     0.740207  p :     2.491392
      px      :     0.919147
      py      :     0.832038
      dz2     :     0.026134  d :     0.173463
      dxz     :     0.038657
      dyz     :     0.071294
      dx2y2   :     0.015439
      dxy     :     0.021939
      f0      :     0.003119  f :     0.015542
      f+1     :     0.002324
      f-1     :     0.004993
      f+2     :     0.001414
      f-2     :     0.001187
      f+3     :     0.001510
      f-3     :     0.000994

  5 C s       :     3.113875  s :     3.113875
      pz      :     0.821527  p :     2.502086
      px      :     0.928748
      py      :     0.751812
      dz2     :     0.041790  d :     0.166153
      dxz     :     0.035310
      dyz     :     0.034438
      dx2y2   :     0.020439
      dxy     :     0.034177
      f0      :     0.001948  f :     0.015918
      f+1     :     0.001523
      f-1     :     0.004545
      f+2     :     0.002248
      f-2     :     0.002665
      f+3     :     0.001794
      f-3     :     0.001195

  6 C s       :     3.265704  s :     3.265704
      pz      :     0.897194  p :     2.887865
      px      :     1.023815
      py      :     0.966857
      dz2     :     0.019519  d :     0.069436
      dxz     :     0.017254
      dyz     :     0.014188
      dx2y2   :     0.011151
      dxy     :     0.007325
      f0      :     0.001249  f :     0.007364
      f+1     :     0.001230
      f-1     :     0.001779
      f+2     :     0.000943
      f-2     :     0.000663
      f+3     :     0.000667
      f-3     :     0.000833

  7 C s       :     3.206219  s :     3.206219
      pz      :     0.942122  p :     2.809378
      px      :     0.969869
      py      :     0.897387
      dz2     :     0.019104  d :     0.080940
      dxz     :     0.005817
      dyz     :     0.016674
      dx2y2   :     0.016369
      dxy     :     0.022975
      f0      :     0.000994  f :     0.007310
      f+1     :     0.000319
      f-1     :     0.001783
      f+2     :     0.001065
      f-2     :     0.001057
      f+3     :     0.001254
      f-3     :     0.000839

  8 C s       :     3.110598  s :     3.110598
      pz      :     0.924196  p :     2.827326
      px      :     0.918270
      py      :     0.984860
      dz2     :     0.016895  d :     0.089727
      dxz     :     0.017547
      dyz     :     0.028672
      dx2y2   :     0.010197
      dxy     :     0.016416
      f0      :     0.001056  f :     0.007049
      f+1     :     0.001106
      f-1     :     0.001765
      f+2     :     0.001060
      f-2     :     0.000405
      f+3     :     0.001078
      f-3     :     0.000579

  9 C s       :     3.300336  s :     3.300336
      pz      :     0.895319  p :     2.838146
      px      :     0.962655
      py      :     0.980173
      dz2     :     0.015759  d :     0.077181
      dxz     :     0.018221
      dyz     :     0.023782
      dx2y2   :     0.009419
      dxy     :     0.010001
      f0      :     0.001367  f :     0.007094
      f+1     :     0.000952
      f-1     :     0.001727
      f+2     :     0.000958
      f-2     :     0.000736
      f+3     :     0.000633
      f-3     :     0.000719

 10 O s       :     3.766038  s :     3.766038
      pz      :     1.237784  p :     4.496349
      px      :     1.441693
      py      :     1.816872
      dz2     :     0.012906  d :     0.040704
      dxz     :     0.011843
      dyz     :     0.005893
      dx2y2   :     0.005729
      dxy     :     0.004333
      f0      :     0.000524  f :     0.002059
      f+1     :     0.000445
      f-1     :     0.000350
      f+2     :     0.000275
      f-2     :     0.000151
      f+3     :     0.000166
      f-3     :     0.000147

 11 C s       :     3.267961  s :     3.267961
      pz      :     0.960917  p :     2.816040
      px      :     0.789584
      py      :     1.065538
      dz2     :     0.021902  d :     0.089720
      dxz     :     0.012891
      dyz     :     0.009134
      dx2y2   :     0.009756
      dxy     :     0.036037
      f0      :     0.000835  f :     0.007796
      f+1     :     0.001997
      f-1     :     0.000116
      f+2     :     0.000824
      f-2     :     0.001666
      f+3     :     0.001401
      f-3     :     0.000958

 12 H s       :     0.865655  s :     0.865655
      pz      :     0.004157  p :     0.020306
      px      :     0.006182
      py      :     0.009967

 13 H s       :     0.845949  s :     0.845949
      pz      :     0.003700  p :     0.020486
      px      :     0.006783
      py      :     0.010003

 14 H s       :     0.854710  s :     0.854710
      pz      :     0.012347  p :     0.020590
      px      :     0.003668
      py      :     0.004575

 15 O s       :     3.767313  s :     3.767313
      pz      :     1.541852  p :     4.438375
      px      :     1.723582
      py      :     1.172942
      dz2     :     0.007163  d :     0.042246
      dxz     :     0.004790
      dyz     :     0.015863
      dx2y2   :     0.007179
      dxy     :     0.007251
      f0      :     0.000175  f :     0.002146
      f+1     :     0.000061
      f-1     :     0.000377
      f+2     :     0.000473
      f-2     :     0.000275
      f+3     :     0.000329
      f-3     :     0.000456

 16 C s       :     3.278598  s :     3.278598
      pz      :     1.067546  p :     2.831428
      px      :     1.058140
      py      :     0.705741
      dz2     :     0.008551  d :     0.085776
      dxz     :     0.012519
      dyz     :     0.023326
      dx2y2   :     0.012093
      dxy     :     0.029288
      f0      :     0.000433  f :     0.007898
      f+1     :     0.000260
      f-1     :     0.001523
      f+2     :     0.002019
      f-2     :     0.000358
      f+3     :     0.002196
      f-3     :     0.001110

 17 H s       :     0.857320  s :     0.857320
      pz      :     0.008061  p :     0.020139
      px      :     0.008800
      py      :     0.003278

 18 H s       :     0.849796  s :     0.849796
      pz      :     0.005382  p :     0.020217
      px      :     0.011259
      py      :     0.003576

 19 H s       :     0.840217  s :     0.840217
      pz      :     0.010027  p :     0.020931
      px      :     0.004709
      py      :     0.006194

 20 H s       :     0.848687  s :     0.848687
      pz      :     0.005243  p :     0.023319
      px      :     0.005315
      py      :     0.012762

 21 H s       :     0.848520  s :     0.848520
      pz      :     0.013761  p :     0.022618
      px      :     0.004990
      py      :     0.003868

 22 H s       :     0.834879  s :     0.834879
      pz      :     0.007896  p :     0.023793
      px      :     0.005807
      py      :     0.010090

 23 H s       :     0.838752  s :     0.838752
      pz      :     0.005087  p :     0.022929
      px      :     0.004953
      py      :     0.012889



                     *******************************
                     * LOEWDIN POPULATION ANALYSIS *
                     *******************************

----------------------
LOEWDIN ATOMIC CHARGES
----------------------
   0 Cu:   -0.443955
   1 Cu:   -0.377608
   2 I :    0.268668
   3 I :    0.287743
   4 C :   -0.219140
   5 C :   -0.219073
   6 C :   -0.120502
   7 C :   -0.111353
   8 C :   -0.151843
   9 C :   -0.087719
  10 O :    0.222766
  11 C :   -0.303082
  12 H :    0.107860
  13 H :    0.109462
  14 H :    0.111986
  15 O :    0.265772
  16 C :   -0.310556
  17 H :    0.107653
  18 H :    0.109869
  19 H :    0.116908
  20 H :    0.151175
  21 H :    0.152104
  22 H :    0.165219
  23 H :    0.167647

-------------------------------
LOEWDIN REDUCED ORBITAL CHARGES
-------------------------------
  0 Cus       :     6.375341  s :     6.375341
      pz      :     4.075686  p :    12.455450
      px      :     4.179717
      py      :     4.200048
      dz2     :     2.056410  d :    10.613086
      dxz     :     2.078649
      dyz     :     2.102101
      dx2y2   :     2.191674
      dxy     :     2.184252
      f0      :     0.000010  f :     0.000078
      f+1     :     0.000008
      f-1     :     0.000005
      f+2     :     0.000015
      f-2     :     0.000008
      f+3     :     0.000021
      f-3     :     0.000011

  1 Cus       :     6.475599  s :     6.475599
      pz      :     4.067578  p :    12.469373
      px      :     4.098524
      py      :     4.303270
      dz2     :     2.042349  d :    10.432550
      dxz     :     2.023289
      dyz     :     2.112397
      dx2y2   :     2.125143
      dxy     :     2.129371
      f0      :     0.000009  f :     0.000086
      f+1     :     0.000006
      f-1     :     0.000014
      f+2     :     0.000011
      f-2     :     0.000009
      f+3     :     0.000018
      f-3     :     0.000019

  2 I s       :     3.612820  s :     3.612820
      pz      :     3.790221  p :    11.028150
      px      :     3.672823
      py      :     3.565106
      dz2     :     2.009043  d :    10.077708
      dxz     :     2.006942
      dyz     :     2.016176
      dx2y2   :     2.026750
      dxy     :     2.018797
      f0      :     0.001225  f :     0.012654
      f+1     :     0.000593
      f-1     :     0.001774
      f+2     :     0.001067
      f-2     :     0.001549
      f+3     :     0.003361
      f-3     :     0.003085

  3 I s       :     3.603975  s :     3.603975
      pz      :     3.780499  p :    11.017924
      px      :     3.680416
      py      :     3.557008
      dz2     :     2.009277  d :    10.077695
      dxz     :     2.005813
      dyz     :     2.015735
      dx2y2   :     2.027159
      dxy     :     2.019710
      f0      :     0.001174  f :     0.012663
      f+1     :     0.000566
      f-1     :     0.001947
      f+2     :     0.001356
      f-2     :     0.001424
      f+3     :     0.003084
      f-3     :     0.003112

  4 C s       :     2.706296  s :     2.706296
      pz      :     0.852257  p :     2.760490
      px      :     0.870354
      py      :     1.037879
      dz2     :     0.176887  d :     0.657536
      dxz     :     0.118024
      dyz     :     0.217520
      dx2y2   :     0.071403
      dxy     :     0.073702
      f0      :     0.019581  f :     0.094819
      f+1     :     0.015979
      f-1     :     0.030601
      f+2     :     0.008986
      f-2     :     0.008277
      f+3     :     0.005409
      f-3     :     0.005985

  5 C s       :     2.708435  s :     2.708435
      pz      :     0.980309  p :     2.746078
      px      :     0.852152
      py      :     0.913617
      dz2     :     0.161988  d :     0.668097
      dxz     :     0.109931
      dyz     :     0.207373
      dx2y2   :     0.085676
      dxy     :     0.103129
      f0      :     0.012279  f :     0.096462
      f+1     :     0.007339
      f-1     :     0.029728
      f+2     :     0.014170
      f-2     :     0.017636
      f+3     :     0.007463
      f-3     :     0.007846

  6 C s       :     2.754985  s :     2.754985
      pz      :     1.025698  p :     2.955660
      px      :     0.927910
      py      :     1.002052
      dz2     :     0.112294  d :     0.366880
      dxz     :     0.065246
      dyz     :     0.112359
      dx2y2   :     0.053594
      dxy     :     0.023387
      f0      :     0.008555  f :     0.042976
      f+1     :     0.005956
      f-1     :     0.012090
      f+2     :     0.005257
      f-2     :     0.004842
      f+3     :     0.002295
      f-3     :     0.003981

  7 C s       :     2.755868  s :     2.755868
      pz      :     0.989112  p :     2.914137
      px      :     0.868970
      py      :     1.056055
      dz2     :     0.111229  d :     0.397259
[...]
 13:     79.04   0.001394    7.04  0.005503  (-0.071846 -0.006123 -0.017424)
 14:     93.08   0.000201    1.02  0.000674  ( 0.019216  0.017345 -0.001885)
 15:    107.39   0.000997    5.04  0.002898  (-0.011497 -0.049250 -0.018445)
 16:    119.08   0.002230   11.27  0.005844  (-0.067185  0.035043  0.010086)
 17:    134.98   0.000153    0.77  0.000353  (-0.006921  0.013810 -0.010697)
 18:    145.23   0.000498    2.51  0.001069  (-0.026793  0.014301  0.012122)
 19:    171.64   0.000143    0.72  0.000259  ( 0.008608  0.013580 -0.000814)
 20:    203.46   0.000169    0.85  0.000259  ( 0.014840  0.001834 -0.005972)
 21:    228.34   0.000209    1.05  0.000285  (-0.015103  0.007023  0.002771)
 22:    232.96   0.003430   17.33  0.004595  (-0.007540  0.064705  0.018735)
 23:    239.21   0.000240    1.21  0.000313  (-0.005492 -0.009591  0.013802)
 24:    283.03   0.000492    2.49  0.000542  ( 0.004270 -0.009789  0.020694)
 25:    344.18   0.001096    5.54  0.000994  ( 0.011684 -0.027431 -0.010257)
 26:    359.01   0.000290    1.46  0.000252  ( 0.004293  0.004101 -0.014716)
 27:    484.40   0.000842    4.26  0.000543  (-0.017477 -0.014408 -0.005435)
 28:    511.73   0.000564    2.85  0.000344  (-0.014955  0.010493 -0.003165)
 29:    544.54   0.000461    2.33  0.000264  ( 0.012530 -0.008301 -0.006183)
 30:    584.01   0.000140    0.71  0.000075  (-0.007712  0.001524  0.003586)
 31:    604.40   0.000728    3.68  0.000376  (-0.004593  0.006674  0.017620)
 32:    753.97   0.001172    5.92  0.000485  (-0.012638  0.002208  0.017900)
 33:    770.51   0.001701    8.60  0.000689  (-0.012718  0.004209  0.022574)
 34:    788.70   0.016930   85.56  0.006699  (-0.079873  0.006147 -0.016776)
 35:    838.34   0.001203    6.08  0.000448  (-0.008271 -0.019026 -0.004193)
 36:    874.18   0.000470    2.37  0.000168  ( 0.010728  0.000500 -0.007230)
 37:    939.24   0.000606    3.06  0.000201  (-0.013895 -0.002428  0.001506)
 38:    967.98   0.000739    3.73  0.000238  (-0.006943  0.013762  0.000817)
 39:   1017.74   0.010042   50.75  0.003079  (-0.038987 -0.008720 -0.038512)
 40:   1048.46   0.004856   24.54  0.001445  ( 0.005306 -0.022267  0.030353)
 41:   1060.85   0.010737   54.26  0.003158  ( 0.009952 -0.054775 -0.007678)
 42:   1128.79   0.006845   34.59  0.001892  (-0.011448  0.037453 -0.018932)
 43:   1168.04   0.001355    6.85  0.000362  (-0.006945  0.005026  0.016989)
 44:   1173.25   0.000117    0.59  0.000031  (-0.004656 -0.001219 -0.002836)
 45:   1184.84   0.001587    8.02  0.000418  ( 0.004914 -0.019029  0.005644)
 46:   1198.95   0.002418   12.22  0.000629  (-0.002845  0.008301 -0.023500)
 47:   1209.85   0.000899    4.54  0.000232  (-0.003457  0.012824 -0.007449)
 48:   1259.45   0.017252   87.19  0.004275  (-0.006132  0.043899 -0.048063)
 49:   1289.11   0.024648  124.56  0.005967  ( 0.022417 -0.033543 -0.065871)
 50:   1307.75   0.026997  136.43  0.006442  ( 0.028592 -0.060946 -0.043705)
 51:   1347.87   0.005290   26.73  0.001225  ( 0.011373 -0.031193 -0.011060)
 52:   1463.95   0.001762    8.91  0.000376  (-0.001080 -0.017475  0.008314)
 53:   1471.28   0.003662   18.50  0.000777  ( 0.010350 -0.012995 -0.022375)
 54:   1486.34   0.002149   10.86  0.000451  (-0.004160  0.020827  0.000384)
 55:   1491.70   0.001769    8.94  0.000370  (-0.002636 -0.014832  0.011965)
 56:   1495.93   0.001345    6.80  0.000281  (-0.015236 -0.004255 -0.005503)
 57:   1502.81   0.003356   16.96  0.000697  (-0.011806  0.010369  0.021212)
 58:   1505.14   0.005624   28.42  0.001166  ( 0.012047 -0.028224 -0.014976)
 59:   1535.26   0.034067  172.16  0.006925  (-0.022772  0.034528  0.072207)
 60:   1600.27   0.001324    6.69  0.000258  ( 0.003351  0.005243 -0.014816)
 61:   1619.53   0.010620   53.67  0.002046  ( 0.015307 -0.042150 -0.005954)
 62:   3016.47   0.009147   46.22  0.000946  ( 0.007666 -0.028947  0.007042)
 63:   3029.78   0.006695   33.83  0.000690  (-0.018838  0.002307 -0.018149)
 64:   3077.92   0.005086   25.70  0.000516  (-0.022217  0.001822 -0.004324)
 65:   3104.70   0.004435   22.41  0.000446  ( 0.007522 -0.013479 -0.014405)
 66:   3142.08   0.004093   20.68  0.000406  (-0.009327 -0.008515  0.015716)
 67:   3143.28   0.003431   17.34  0.000341  ( 0.006003 -0.010001 -0.014304)
 68:   3182.22   0.000044    0.22  0.000004  (-0.001101  0.000916 -0.001491)
 69:   3192.73   0.000300    1.52  0.000029  (-0.000238 -0.000934 -0.005330)
 70:   3200.12   0.000237    1.20  0.000023  ( 0.000752 -0.002199 -0.004210)
 71:   3220.74   0.000407    2.05  0.000039  ( 0.001969 -0.005771  0.001490)

* The epsilon (eps) is given for a Dirac delta lineshape.
** The dipole moment derivative (T) already includes vibrational overlap.

The first frequency considered to be a vibration is 7
The total number of vibrations considered is 65


--------------------------
THERMOCHEMISTRY AT 298.15K
--------------------------

Temperature         ...   298.15 K
Pressure            ...     1.00 atm
Total Mass          ...   519.07 AMU
Quasi RRHO          ...     True
Cut-Off Frequency   ...     1.00 cm^-1

Throughout the following assumptions are being made:
  (1) The electronic state is orbitally nondegenerate
  (2) There are no thermally accessible electronically excited states
  (3) Hindered rotations indicated by low frequency modes are not
      treated as such but are treated as vibrations and this may
      cause some error
  (4) All equations used are the standard statistical mechanics
      equations for an ideal gas
  (5) All vibrations are strictly harmonic

freq.      18.82  E(vib)   ...       0.57 
freq.      28.90  E(vib)   ...       0.55 
freq.      39.33  E(vib)   ...       0.54 
freq.      46.93  E(vib)   ...       0.53 
freq.      53.62  E(vib)   ...       0.52 
freq.      72.30  E(vib)   ...       0.50 
freq.      79.04  E(vib)   ...       0.49 
freq.      93.08  E(vib)   ...       0.47 
freq.     107.39  E(vib)   ...       0.45 
freq.     119.08  E(vib)   ...       0.44 
freq.     134.98  E(vib)   ...       0.42 
freq.     145.23  E(vib)   ...       0.41 
freq.     171.64  E(vib)   ...       0.38 
freq.     203.46  E(vib)   ...       0.35 
freq.     228.34  E(vib)   ...       0.32 
freq.     232.96  E(vib)   ...       0.32 
freq.     239.21  E(vib)   ...       0.31 
freq.     283.03  E(vib)   ...       0.28 
freq.     344.18  E(vib)   ...       0.23 
freq.     359.01  E(vib)   ...       0.22 
freq.     484.40  E(vib)   ...       0.15 
freq.     511.73  E(vib)   ...       0.14 
freq.     544.54  E(vib)   ...       0.12 
freq.     584.01  E(vib)   ...       0.11 
freq.     604.40  E(vib)   ...       0.10 
freq.     753.97  E(vib)   ...       0.06 
freq.     770.51  E(vib)   ...       0.05 
freq.     788.70  E(vib)   ...       0.05 
freq.     838.34  E(vib)   ...       0.04 
freq.     874.18  E(vib)   ...       0.04 
freq.     939.24  E(vib)   ...       0.03 
freq.     967.98  E(vib)   ...       0.03 
freq.    1017.74  E(vib)   ...       0.02 
freq.    1048.46  E(vib)   ...       0.02 
freq.    1060.85  E(vib)   ...       0.02 
freq.    1128.79  E(vib)   ...       0.01 
freq.    1168.04  E(vib)   ...       0.01 
freq.    1173.25  E(vib)   ...       0.01 
freq.    1184.84  E(vib)   ...       0.01 
freq.    1198.95  E(vib)   ...       0.01 
freq.    1209.85  E(vib)   ...       0.01 
freq.    1259.45  E(vib)   ...       0.01 
freq.    1289.11  E(vib)   ...       0.01 
freq.    1307.75  E(vib)   ...       0.01 
freq.    1347.87  E(vib)   ...       0.01 
freq.    1463.95  E(vib)   ...       0.00 
freq.    1471.28  E(vib)   ...       0.00 
freq.    1486.34  E(vib)   ...       0.00 
freq.    1491.70  E(vib)   ...       0.00 
freq.    1495.93  E(vib)   ...       0.00 
freq.    1502.81  E(vib)   ...       0.00 
freq.    1505.14  E(vib)   ...       0.00 
freq.    1535.26  E(vib)   ...       0.00 
freq.    1600.27  E(vib)   ...       0.00 
freq.    1619.53  E(vib)   ...       0.00 
freq.    3016.47  E(vib)   ...       0.00 
freq.    3029.78  E(vib)   ...       0.00 
freq.    3077.92  E(vib)   ...       0.00 
freq.    3104.70  E(vib)   ...       0.00 
freq.    3142.08  E(vib)   ...       0.00 
freq.    3143.28  E(vib)   ...       0.00 
freq.    3182.22  E(vib)   ...       0.00 
freq.    3192.73  E(vib)   ...       0.00 
freq.    3200.12  E(vib)   ...       0.00 
freq.    3220.74  E(vib)   ...       0.00 

------------
INNER ENERGY
------------

The inner energy is: U= E(el) + E(ZPE) + E(vib) + E(rot) + E(trans)
    E(el)   - is the total energy from the electronic structure calculation
              = E(kin-el) + E(nuc-el) + E(el-el) + E(nuc-nuc)
    E(ZPE)  - the the zero temperature vibrational energy from the frequency calculation
    E(vib)  - the the finite temperature correction to E(ZPE) due to population
              of excited vibrational states
    E(rot)  - is the rotational thermal energy
    E(trans)- is the translational thermal energy

Summary of contributions to the inner energy U:
Electronic energy                ...  -4337.78008773 Eh
Zero point energy                ...      0.16753577 Eh     105.13 kcal/mol
Thermal vibrational correction   ...      0.01496005 Eh       9.39 kcal/mol
Thermal rotational correction    ...      0.00141627 Eh       0.89 kcal/mol
Thermal translational correction ...      0.00141627 Eh       0.89 kcal/mol
-----------------------------------------------------------------------
Total thermal energy                  -4337.59475937 Eh


Summary of corrections to the electronic energy:
(perhaps to be used in another calculation)
Total thermal correction                  0.01779259 Eh      11.16 kcal/mol
Non-thermal (ZPE) correction              0.16753577 Eh     105.13 kcal/mol
-----------------------------------------------------------------------
Total correction                          0.18532836 Eh     116.30 kcal/mol


--------
ENTHALPY
--------

The enthalpy is H = U + kB*T
                kB is Boltzmann's constant
Total thermal energy              ...  -4337.59475937 Eh 
Thermal Enthalpy correction       ...      0.00094421 Eh       0.59 kcal/mol
-----------------------------------------------------------------------
Total Enthalpy                    ...  -4337.59381516 Eh


Note: Only C1 symmetry has been detected, increase convergence thresholds 
      if your molecule has a higher symmetry. Symmetry factor of 1.0 is   
      used for the rotational entropy correction. 
 

Note: Rotational entropy computed according to Herzberg 
Infrared and Raman Spectra, Chapter V,1, Van Nostrand Reinhold, 1945 
Point Group:  C1, Symmetry Number:   1  
Rotational constants in cm-1:     0.012489     0.005872     0.004738 

Vibrational entropy computed according to the QRRHO of S. Grimme
Chem.Eur.J. 2012 18 9955 using a reference frequency of 100.0 cm-1


-------
ENTROPY
-------

The entropy contributions are T*S = T*(S(el)+S(vib)+S(rot)+S(trans))
     S(el)   - electronic entropy
     S(vib)  - vibrational entropy
     S(rot)  - rotational entropy
     S(trans)- translational entropy
The entropies will be listed as multiplied by the temperature to get
units of energy

Electronic entropy                ...      0.00000000 Eh      0.00 kcal/mol
Vibrational entropy               ...      0.02843715 Eh     17.84 kcal/mol
Rotational entropy                ...      0.01653200 Eh     10.37 kcal/mol
Translational entropy             ...      0.02120364 Eh     13.31 kcal/mol
-----------------------------------------------------------------------
Final entropy term                ...      0.06617279 Eh     41.52 kcal/mol

In case the symmetry of your molecule has not been determined correctly
or in case you have a reason to use a different symmetry number we print 
out the resulting rotational entropy values for sn=1,12:

 non-linear molecules -----------------------------------
|  sn= 1 | S(rot)=       0.01653200 Eh     10.37 kcal/mol|
|  sn= 2 | S(rot)=       0.01587754 Eh      9.96 kcal/mol|
|  sn= 3 | S(rot)=       0.01549471 Eh      9.72 kcal/mol|
|  sn= 4 | S(rot)=       0.01522309 Eh      9.55 kcal/mol|
|  sn= 5 | S(rot)=       0.01501240 Eh      9.42 kcal/mol|
|  sn= 6 | S(rot)=       0.01484025 Eh      9.31 kcal/mol|
|  sn= 7 | S(rot)=       0.01469471 Eh      9.22 kcal/mol|
|  sn= 8 | S(rot)=       0.01456863 Eh      9.14 kcal/mol|
|  sn= 9 | S(rot)=       0.01445742 Eh      9.07 kcal/mol|
|  sn=10 | S(rot)=       0.01435794 Eh      9.01 kcal/mol|
|  sn=11 | S(rot)=       0.01426795 Eh      8.95 kcal/mol|
|  sn=12 | S(rot)=       0.01418580 Eh      8.90 kcal/mol|
 linear molecules ---------------------------------------
|  Dinfh | S(rot)=       0.01037917 Eh      6.51 kcal/mol|
|  Cinfv | S(rot)=       0.01103362 Eh      6.92 kcal/mol|
 --------------------------------------------------------


-------------------
GIBBS FREE ENERGY
-------------------

The Gibbs free energy is G = H - T*S

Total enthalpy                    ...  -4337.59381516 Eh 
Total entropy correction          ...     -0.06617279 Eh    -41.52 kcal/mol
-----------------------------------------------------------------------
Final Gibbs free energy         ...  -4337.65998796 Eh

For completeness - the Gibbs free energy minus the electronic energy
G-E(el)                           ...      0.12009978 Eh     75.36 kcal/mol


Maximum memory used throughout the entire PROP-calculation: 247.4 MB

--------------------------------
SUGGESTED CITATIONS FOR THIS RUN
--------------------------------

Below you find a list of papers that are relevant to this ORCA run
We neither can nor want to force you to cite these papers, but we appreciate if you do
You receive ORCA, which is the product of decades of hard work by many enthusiastic individuals, for free
The only thing we kindly ask in return is that you cite our papers,
We deeply appreciate it, if you show your appreciation for ORCA by not just citing the generic ORCA reference.

Please note that relegating all ORCA citations to the supporting information does *not* help us.
SI sections are not indexed - citations you put there will not count into any citation statistics
But we need these citations in order to attract the funding resources that allow us to do what we are doing

Therefore, if you are a happy ORCA user, please consider citing a few of the papers listed below in the main body of your paper

In addition to the list printed below, the program has created the file cu2i2_veratrole_pi_opt_freq_v2.bibtex that contains the list in bibtex format
You can import this file easily into all common literature databanks and citation aid programs

It goes without saying that in many instances, there are alternative algorithms to achieve similar
results as the ones you have gotten from ORCA. It is, of course, also the case that in some instances
ORCA just re-implements algorithms worked out by others. We are fully aware of that and we are also
fully appreciative of our colleagues work. Hence this citation list should not be read as indicating
that the listed papers, which are focused on our own work, are the only ones worth citing. It simply
meant to make it easier for users to cite ORCA specific papers. It is not a substitute for doing your
own literature research and citing the relevant literature in a scientifically appropriate manner.

List of essential papers. We consider these as the minimum necessary citations

  1. Neese, F.
     Software update: the ORCA program system, version 6.0
     WIRES Comput. Molec. Sci. 2025 15(1), e70019
     doi.org/10.1002/wcms.70019

List of papers to cite with high priority. The work reported in these papers was absolutely
necessary for this run to complete.
Our perspective: the developers of density functionals and basis sets usually get cited in chemistry papers
Good! But without the algorithms to do something with them, the functionals or basis sets would not do anything.
Hence, in our opinion, the algorithm design and method developments papers are equally worthy of getting cited

  1. Neese, F.
     An improvement of the resolution of the identity approximation for the formation of the Coulomb matrix
     J. Comp. Chem. 2003 24(14), 1740-1747
     doi.org/10.1002/jcc.10318
  2. Neese, F.; Wennmohs, F.; Hansen, A.; Becker, U.
     Efficient, approximate and parallel Hartree-Fock and hybrid DFT calculations. A 'chain-of-spheres' algorithm for the Hartree-Fock exchange
     Chem. Phys. 2009 356(1-3), 98-109
     doi.org/10.1016/j.chemphys.2008.10.036
  3. Grimme, S.; Antony, J.; Ehrlich, S.; Krieg, H.
     A consistent and accurate ab initio parametrization of density functional dispersion correction (DFT-D) for the 94 elements H-Pu
     J. Chem. Phys. 2010 132 , 154104
     doi.org/10.1063/1.3382344
  4. Grimme, S.; Ehrlich, S.; Goerigk, L.
     Effect of the damping function in dispersion corrected density functional theory
     J. Comput. Chem. 2011 32(7), 1456-1465
     doi.org/10.1002/jcc.21759
  5. Bykov, D.; Petrenko, T.; Izsak, R.; Kossmann, S.; Becker, U.; Valeev, E.; Neese, F.
     Efficient implementation of the analytic second derivatives of Hartree-Fock and hybrid DFT energies: a detailed analysis of different approximations
     Molec. Phys. 2015 113 , 1961-1977
     doi.org/10.1080/00268976.2015.1025114
  6. Helmich-Paris, B.; de Souza, B.; Neese, F.; Izsák, R.
     An improved chain of spheres for exchange algorithm
     J. Chem. Phys. 2021 155(10), 104109
     doi.org/10.1063/5.0058766
  7. Neese, F.
     The SHARK Integral Generation and Digestion System
     J. Comp. Chem. 2022 44(3), 381
     doi.org/10.1002/jcc.26942

List of suggested additional citations. These are papers that are important in the 'surrounding' of 
of this run, or papers that preceded the highly important papers. If you like your results we are grateful for a citation.

  1. Izsak, R.; Neese, F.
     An overlap fitted chain of spheres exchange method
     J. Chem. Phys. 2011 135 , 144105
     doi.org/10.1063/1.3646921
  2. Izsak, R.; Hansen, A.; Neese, F.
     The resolution of identity and chain of spheres approximations for the LPNO-CCSD singles Fock term
     Molec. Phys. 2012 110 , 2413-2417
     doi.org/10.1080/00268976.2012.687466
  3. Neese, F.
     The ORCA program system
     WIRES Comput. Molec. Sci. 2012 2(1), 73-78
     doi.org/10.1002/wcms.81
  4. Izsak, R.; Neese, F.; Klopper, W.
     Robust fitting techniques in the chain of spheres approximation to the Fock exchange: The role of the complementary space
     J. Chem. Phys. 2013 139 , 
     doi.org/10.1063/1.4819264
  5. Neese, F.
     Software update: the ORCA program system, version 4.0
     WIRES Comput. Molec. Sci. 2018 8(1), 1-6
     doi.org/10.1002/wcms.1327
  6. Neese, F.; Wennmohs, F.; Becker, U.; Riplinger, C.
     The ORCA quantum chemistry program package
     J. Chem. Phys. 2020 152(22), 224108
     doi.org/10.1063/5.0004608
  7. Neese, F.
     Software update: The ORCA program system—Version 5.0
     WIRES Comput. Molec. Sci. 2022 12(1), e1606
     doi.org/10.1002/wcms.1606

List of optional additional citations

  1. Neese, F.
     Approximate second-order SCF convergence for spin unrestricted wavefunctions
     Chem. Phys. Lett. 2000 325(1-3), 93-98
     doi.org/10.1016/s0009-2614(00)00662-x

Timings for individual modules:

Sum of individual times          ...     3910.545 sec (=  65.176 min)
Startup calculation              ...      208.382 sec (=   3.473 min)   5.3 %
SCF iterations                   ...     1766.442 sec (=  29.441 min)  45.2 %
Property integrals               ...      391.575 sec (=   6.526 min)  10.0 %
SCF Response                     ...      292.857 sec (=   4.881 min)   7.5 %
Property calculations            ...      495.955 sec (=   8.266 min)  12.7 %
SCF Gradient evaluation          ...      755.254 sec (=  12.588 min)  19.3 %
Geometry relaxation              ...        0.080 sec (=   0.001 min)   0.0 %
                             ****ORCA TERMINATED NORMALLY****
TOTAL RUN TIME: 0 days 1 hours 5 minutes 26 seconds 122 msec
