
                                 *****************
                                 * O   R   C   A *
                                 *****************

                                            #,                                       
                                            ###                                      
                                            ####                                     
                                            #####                                    
                                            ######                                   
                                           ########,                                 
                                     ,,################,,,,,                         
                               ,,#################################,,                 
                          ,,##########################################,,             
                       ,#########################################, ''#####,          
                    ,#############################################,,   '####,        
                  ,##################################################,,,,####,       
                ,###########''''           ''''###############################       
              ,#####''   ,,,,##########,,,,          '''####'''          '####       
            ,##' ,,,,###########################,,,                        '##       
           ' ,,###''''                  '''############,,,                           
         ,,##''                                '''############,,,,        ,,,,,,###''
      ,#''                                            '''#######################'''  
     '                                                          ''''####''''         
             ,#######,   #######,   ,#######,      ##                                
            ,#'     '#,  ##    ##  ,#'     '#,    #''#        ,####,    ,#,          
            ##       ##  ##   ,#'  ##            #'  '#       #'       ,# #          
            ##       ##  #######   ##           ,######,      #####,      #          
            '#,     ,#'  ##    ##  '#,     ,#' ,#      #,     #,   #      #          
             '#######'   ##     ##  '#######'  #'      '#     '####' #    #          



                #########################################################
                #                        -***-                          #
                #          Department of theory and spectroscopy        #
                #                                                       #
                #                      Frank Neese                      #
                #                                                       #
                #     Directorship, Architecture, Infrastructure        #
                #                    SHARK, DRIVERS                     #
                #        Core code/Algorithms in most modules           #
                #                                                       #
                #        Max Planck Institute fuer Kohlenforschung      #
                #                Kaiser Wilhelm Platz 1                 #
                #                 D-45470 Muelheim/Ruhr                 #
                #                      Germany                          #
                #                                                       #
                #                  All rights reserved                  #
                #                        -***-                          #
                #########################################################


                         Program Version 6.1.1  -  RELEASE   -
                                (GIT: $487d211c$)
                          ($2025-11-21 10:33:24 +0100$)


 With contributions from (in alphabetic order):
[Max-Planck-Institut fuer Kohlenforschung]                               
  Daniel Aravena         : Magnetic Suceptibility                        
  Michael Atanasov       : Ab Initio Ligand Field Theory (pilot matlab implementation)
  Alexander A. Auer      : GIAO ZORA, VPT2 properties, NMR spectrum      
  Ute Becker             : All parallelization in ORCA, NUMFREQ, NUMCALC 
  Giovanni Bistoni       : ED, misc. LED, open-shell LED, HFLD           
  Dmytro Bykov           : pre 5.0 version of the SCF Hessian            
  Marcos Casanova-Páez   : Triplet and SCS-CIS(D). UHF-(DLPNO)-IP/EA/STEOM-CCSD. UHF-CVS-IP/STEOM-CCSD   
  Vijay G. Chilkuri      : MRCI spin determinant printing, contributions to CSF-ICE 
  Pauline Colinet        : FMM embedding                                 
  Dipayan Datta          : RHF DLPNO-CCSD density                        
  Achintya Kumar Dutta   : EOM-CC, STEOM-CC                              
  Nicolas Foglia         : Exact transition moments, OPA infrastructure, MCD improvements    
  Dmitry Ganyushin       : Spin-Orbit,Spin-Spin,Magnetic field MRCI      
  Miquel Garcia-Rates    : C-PCM and meta-GGA Hessian, CCSD/C-PCM, Gaussian charge scheme 
  Tiago L. C. Gouveia    : GS-ROHF, GS-ROCIS                             
  Yang Guo               : DLPNO-NEVPT2, F12-NEVPT2, CIM, IAO-localization        
  Andreas Hansen         : Spin unrestricted coupled pair/coupled cluster methods 
  Ingolf Harden          : AUTO-CI MPn and infrastructure                
  Benjamin Helmich-Paris : MC-RPA, TRAH-(SCF,CASSCF), AVAS, COSX integrals, SCF dyn. polar., MC-PDFT, srDFT 
  Lee Huntington         : MR-EOM, pCC                                   
  Robert Izsak           : Overlap fitted RIJCOSX, COSX-SCS-MP3, EOM     
  Riya Kayal             : Wick's Theorem for AUTO-CI, AUTO-CI UHF-CCSDT 
  Emily Kempfer          : AUTO-CI RHF CISDT and CCSDT, approximate NEVPT4
  Christian Kollmar      : KDIIS, OOCD, Brueckner-CCSD(T), CCSD density, CASPT2, CASPT2-K, improved NEVPT2 
  Axel Koslowski         : Symmetry handling                             
  Simone Kossmann        : meta-GGA functionals, TD-DFT gradient, OOMP2, (MP2 Hessian; deprecated post 5.0) 
  Lucas Lang             : DCDCAS, Hyperfine gauge corrections, ICE-SOC+SSC
  Marvin Lechner         : AUTO-CI (C++ implementation), FIC-MRCC        
  Spencer Leger          : CASSCF response                               
  Dagmar Lenk            : GEPOL surface, SMD, ORCA-2-JSON               
  Dimitrios Liakos       : Extrapolation schemes; Compound Job, Property file
  Dimitrios Manganas     : Further ROCIS development; embedding schemes. LFT, Crystal Embedding 
  Dimitrios Pantazis     : SARC Basis sets                               
  Anastasios Papadopoulos: AUTO-CI, single reference methods and gradients 
  Taras Petrenko         : pre 6.0 DFT Hessian and TD-DFT gradient,  ECA, NRVS 
  Petra Pikulova         : Analytic Raman intensities                    
  Peter Pinski           : DLPNO-MP2, DLPNO-MP2 Gradient                 
  Shashank Vittal Rao    : ES-AILFT, MagRelax                            
  Christoph Reimann      : Effective Core Potentials                     
  Marius Retegan         : Local ZFS, SOC                                
  Christoph Riplinger    : Optimizer, TS searches, QM/MM, DLPNO-CCSD(T), (RO)-DLPNO pert. Triples 
  Michael Roemelt        : Original ROCIS implementation, recursive CI coupling coefficients
  Masaaki Saitow         : Open-shell DLPNO-CCSD energy and density      
  Barbara Sandhoefer     : DKH picture change effects                    
  Yorick L. A. Schmerwitz: GMF and freeze-and-release deltaSCF, NEB S-IDPP initial path                    
  Kantharuban Sivalingam : CASSCF convergence/infrastructure, NEVPT2, NEVPT3, NEVPT4(SD), FIC-MRCI and CEPA variants
  Bernardo de Souza      : ESD, SOC TD-DFT                               
  Georgi L. Stoychev     : AutoAux, RI-MP2 NMR, DLPNO-MP2 response, X2C  
  Van Anh Tran           : RI-MP2 g-tensors                              
  Willem Van den Heuvel  : Paramagnetic NMR                              
  Zikuan Wang            : NOTCH, Electric field optimization            
  Frank Wennmohs         : Technical directorship and infrastructure     
  Hang Xu                : AUTO-CI-Response properties                   
                                                                         
[FACCTs GmbH]                                                            
  Markus Bursch, Nicolas Foglia, Miquel Garcia-Rates, Ingolf Harden, Hagen Neugebauer, Anastasios Papadopoulos, 
  Christoph Riplinger, Bernardo de Souza, Georgi L. Stoychev                                                    
                                                                 
  APM, various basis sets, CI-OPT, improved COSX, DLPNO-Multilevel,           
  DOCKER, DRACO, updates on ESD, Fragmentator, GOAT, IRC, LR-CPCM, L-BFGS, MBIS, meta-GGA TD-DFT gradient, ML-optimized integration grids, 
  MM, NACMEs, nearIR, NEB, NEB-TS, NL-DFT gradient (VV10), 2- and 3-layer-ONIOM, interface openCOSMO-RS, QMMM,   
  Crystal-QMMM, RESP, rigid body optimization, SF, symmetry and pop. for TD-DFT, various functionals, SOLVATOR                                   
                                                                         
[Other institutions]                                                     
  V. Asgeirsson          : NEB                                           
  Christoph Bannwarth    : sTDA-DFT, sTD-DFT, PBEh-3c, B97-3c, D3        
  Giovanni Bistoni       : ETS/NOCV, ADLD/ADEX, COVALED                  
  Martin Brehm           : Molecular dynamics                            
  Ronald Cardenas        : ETS/NOCV                                      
  Martina Colucci        : COVALED                                       
  Sebastian Ehlert       : rSCAN, r2SCAN, r2SCAN-3c, D4, dhf basis sets  
  Marvin Friede          : D4 for Fr, Ra, Ac-Lr                          
  Lars Goerigk           : TD-DFT with DH, B97 family of functionals     
  Stefan Grimme          : VdW corrections, initial TS optimization, DFT functionals, gCP, sTDA/sTD-DF 
  Waldemar Hujo          : DFT-NL                                        
  H. Jonsson             : NEB                                           
  Holger Kruse           : gCP                                           
  Marcel Mueller         : wB97X-3c, vDZP basis set                      
  Hagen Neugebauer       : wr2SCAN, Native XTB                           
  Gianluca Regni         : ADLD/ADEX                                     
  Tobias Risthaus        : pre 6.0 range-separated hybrid DFT and stability analysis
  Lukas Wittmann         : regularized MP2, r2SCAN double-hybrids, wr2SCAN        
                                                                         
We gratefully acknowledge several colleagues who have allowed us to      
interface, adapt or use parts of their codes:                            
  Ed Valeev, F. Pavosevic, A. Kumar             : LibInt (2-el integral package), F12 methods 
  Garnet Chan, S. Sharma, J. Yang, R. Olivares  : DMRG                   
  Ulf Ekstrom                                   : XCFun DFT Library      
  Mihaly Kallay                                 : mrcc  (arbitrary order and MRCC methods)
  Frank Weinhold                                : gennbo (NPA and NBO analysis)           
  Simon Mueller                                 : openCOSMO-RS                            
  Christopher J. Cramer and Donald G. Truhlar   : smd solvation model                     
  S Lehtola, MJT Oliveira, MAL Marques          : LibXC Library                           
  Liviu Ungur et al                             : ANISO software                          


 Your calculation uses the libint2 library for the computation of 2-el integrals
 For citations please refer to: http://libint.valeyev.net

 Your ORCA version has been built with support for libXC version: 7.0.0
 For citations please refer to: https://libxc.gitlab.io

 This ORCA versions uses:
   CBLAS   interface :  Fast vector & matrix operations
   LAPACKE interface :  Fast linear algebra routines
   SCALAPACK package :  Parallel linear algebra routines
   Shared memory     :  Shared parallel matrices
   BLAS/LAPACK       :  OpenBLAS 0.3.29  USE64BITINT DYNAMIC_ARCH NO_AFFINITY Zen SINGLE_THREADED
        Core in use  :  Zen
   Copyright (c) 2011-2014, The OpenBLAS Project


  ***********************************
  * Starting time: Thu Apr 30 16:29:37 2026
  * Host name:     e46e9c79961b
  * Process ID:    2876
  * Working dir.:  /workspace/orca_calc_grid5_v9/calc
  ***********************************

================================================================================

----- Orbital basis set information -----
Your calculation utilizes the basis: def2-SVP
   F. Weigend and R. Ahlrichs, Phys. Chem. Chem. Phys. 7, 3297 (2005).

The basis set includes element-specific modifications.

----- AuxJ basis set information -----
Your calculation utilizes the auxiliary basis: def2/J
   H-Rn: F. Weigend, Phys. Chem. Chem. Phys. 8, 1057 (2006).
   Fr-Lr: K. Eichkorn, F. Weigend, O. Treutler, R. Ahlrichs; Theor. Chem. Acc. 97, 119 (1997).

The basis set includes element-specific modifications.

================================================================================
                                        WARNINGS
                       Please study these warnings very carefully!
================================================================================


WARNING: ROHF and Conv is not properly working
  ===> : Setting Mode to Direct


WARNING: Found SCFConvIgnored == true
  ===> : Will try to continue after any unconverged SCF -
         no matter how far from convergence the wavefunction might be.

         Please be very careful with your results!


WARNING: TRAH-SCF with ROHF wave function is not implemented yet
  ===> : Turning TRAH off


================================================================================
                                       INPUT FILE
================================================================================
NAME = cu2i2_veratrole_methoxyO_startA_smd_grid5_sp_atom53.inp
|  1> # input to generate an atomic fitting density for I 
|  2> # this file is used internally by ORCA
|  3> #
|  4> # atomic ground state (Mult=2): 1s2 2s2 2p6 3s2 3p6 4s2 3d10 4p6 5s2 4d10 5p5 
|  5> #
|  6> ! ROHF def2-SVP def2/J Conv LeanSCF AODIIS SOSCF NoMulliken NoLoewdin NoMayer NoPrintMOs 
|  7> 
|  8> %output print[p_atomdensfit] 2 end
|  9> 
| 10> %scf
| 11>   guess     HCore
| 12>   maxiter    1000
| 13>   maxdisk  500000
| 14>   diismaxeq     8
| 15>   soscfstart 1e-4
| 16>   lshift  1.000000
| 17>   ignoreconv true
| 18> 
| 19>   hftyp        rohf
| 20>   rohf_case    sahf
| 21>   rohf_numop   2
| 22>   rohf_norb[1] 3
| 23>   rohf_nel[1]  5
| 24> 
| 25> end
| 26> 
| 27> %basis
| 28>   NewECP 53
| 29>     N_core 28
| 30>     lmax f
| 31>     s 7
| 32>       1      40.0158350000     49.9942930000  2
| 33>       2      17.4297470000    281.0253170000  2
| 34>       3       9.0054840000     61.5733260000  2
| 35>       4      19.4586090000     21.8420400000  2
| 36>       5      19.3492600000     28.4681910000  2
| 37>       6       4.8237670000      0.2437130000  2
| 38>       7       4.8843150000      0.3208040000  2
| 39>     p 8
| 40>       1      15.3554660000     67.4428410000  2
| 41>       2      14.9718330000    134.8811370000  2
| 42>       3       8.9601640000     14.6750510000  2
| 43>       4       8.2590960000     29.3756660000  2
| 44>       5      19.4586090000     21.8420400000  2
| 45>       6      19.3492600000     28.4681910000  2
| 46>       7       4.8237670000      0.2437130000  2
| 47>       8       4.8843150000      0.3208040000  2
| 48>     d 10
| 49>       1      15.0689080000     35.4395290000  2
| 50>       2      14.5553220000     53.1760570000  2
| 51>       3       6.7186470000      9.0671950000  2
| 52>       4       6.4563930000     13.2069370000  2
| 53>       5       1.1917790000      0.0893350000  2
| 54>       6       1.2911570000      0.0523800000  2
| 55>       7      19.4586090000     21.8420400000  2
| 56>       8      19.3492600000     28.4681910000  2
| 57>       9       4.8237670000      0.2437130000  2
| 58>      10       4.8843150000      0.3208040000  2
| 59>     f 4
| 60>       1      19.4586090000    -21.8420400000  2
| 61>       2      19.3492600000    -28.4681910000  2
| 62>       3       4.8237670000     -0.2437130000  2
| 63>       4       4.8843150000     -0.3208040000  2
| 64>   end
| 65>   NewGTO 53
| 66>     s 5 
| 67>      1    5899.5791533000      0.0002610056
| 68>      2     898.5423876500      0.0016697400
| 69>      3     200.3723791200      0.0046223298
| 70>      4      31.4180538400     -0.0425342684
| 71>      5      15.6459878380      1.0368318419
| 72>     s 2 
| 73>      1      11.8157418570      0.6510798928
| 74>      2       6.4614458287      0.3642365936
| 75>     s 1 
| 76>      1       2.3838067579      1.0000000000
| 77>     s 1 
| 78>      1       1.1712089662      1.0000000000
| 79>     s 1 
| 80>      1       0.3211587576      1.0000000000
| 81>     s 1 
| 82>      1       0.1238791936      1.0000000000
| 83>     p 3 
| 84>      1     197.3003054700      0.0031927743
| 85>      2      20.0614113490      0.2856760152
| 86>      3       9.7631460485     -1.2328204991
| 87>     p 4 
| 88>      1      12.9843169040     -0.0386816591
| 89>      2       3.6199503008      0.3065970959
| 90>      3       2.0232273090      0.5169312450
| 91>      4       1.0367490559      0.2505722415
| 92>     p 1 
| 93>      1       0.4593781600      1.0000000000
| 94>     p 1 
| 95>      1       0.1911653293      1.0000000000
| 96>     p 1 
| 97>      1       0.0748788130      1.0000000000
| 98>     d 6 
| 99>      1     119.1267174500      0.0008836387
|100>      2      33.4042401340      0.0073152612
|101>      3      17.8059182030     -0.0110279962
|102>      4       4.8990510353      0.2425357632
|103>      5       2.4516753106      0.4726529042
|104>      6       1.1820693432      0.3934356930
|105>     d 1 
|106>      1       0.5292311007      1.0000000000
|107>     d 1 
|108>      1       0.1700000000      1.0000000000
|109>   end
|110>   NewAuxGTO 53
|111>     S 1
|112>      1 1310.72 1.0
|113>     S 1
|114>      1  655.36 1.0
|115>     S 1
|116>      1  327.68 1.0
|117>     S 1
|118>      1  163.84 1.0
|119>     S 1
|120>      1   81.82 1.0
|121>     S 1
|122>      1   40.96 1.0
|123>     S 1
|124>      1   20.48 1.0
|125>     S 1
|126>      1   10.24 1.0
|127>     S 1
|128>      1    5.12 1.0
|129>     S 1
|130>      1    2.56 1.0
|131>     S 1
|132>      1    1.28 1.0
|133>     S 1
|134>      1    0.64 1.0
|135>     S 1
|136>      1    0.32 1.0
|137>     S 1
|138>      1    0.16 1.0
|139>     S 1
|140>      1    0.08 1.0
|141>     S 1
|142>      1    0.04 1.0
|143>     S 1
|144>      1    0.02 1.0
|145>     S 1
|146>      1    0.01 1.0
|147>   end
|148> end
|149> 
|150> * xyz 0 2
|151> 53  0.0 0.0 0.0
|152> *
|153> 
|154> 
|155>                          ****END OF INPUT****
================================================================================

                       ****************************
                       * Single Point Calculation *
                       ****************************

---------------------------------
CARTESIAN COORDINATES (ANGSTROEM)
---------------------------------
  I      0.000000    0.000000    0.000000

----------------------------
CARTESIAN COORDINATES (A.U.)
----------------------------
  NO LB      ZA    FRAG     MASS         X           Y           Z
   0 I    25.0000*   0   126.900    0.000000    0.000000    0.000000
* core charge reduced due to ECP

--------------------------------
INTERNAL COORDINATES (ANGSTROEM)
--------------------------------
 I      0   0   0     0.000000000000     0.00000000     0.00000000

---------------------------
INTERNAL COORDINATES (A.U.)
---------------------------
 I      0   0   0     0.000000000000     0.00000000     0.00000000

---------------------
BASIS SET INFORMATION
---------------------
There are 1 groups of distinct atoms

 Group   1 Type I   : 11s10p8d contracted to 6s5p3d pattern {521111/34111/611}

Atom   0I    basis set group =>   1
---------------------------------
AUXILIARY/J BASIS SET INFORMATION
---------------------------------
There are 1 groups of distinct atoms

 Group   1 Type I   : 18s contracted to 18s pattern {111111111111111111}

Atom   0I    basis set group =>   1
-------------------------
ECP PARAMETER INFORMATION
-------------------------

 Group 1, Type I  ECP (replacing 28 core electrons, lmax=3)

Atom   0I    ECP group =>   1

------------------------------------------------------------------------------
                             ORCA STARTUP CALCULATIONS
------------------------------------------------------------------------------
------------------------------------------------------------------------------
                   ___                                                        
                  /   \      - P O W E R E D   B Y -                         
                 /     \                                                     
                 |  |  |   _    _      __       _____    __    __             
                 |  |  |  | |  | |    /  \     |  _  \  |  |  /  |          
                  \  \/   | |  | |   /    \    | | | |  |  | /  /          
                 / \  \   | |__| |  /  /\  \   | |_| |  |  |/  /          
                |  |  |   |  __  | /  /__\  \  |    /   |      \           
                |  |  |   | |  | | |   __   |  |    \   |  |\   \          
                \     /   | |  | | |  |  |  |  | |\  \  |  | \   \       
                 \___/    |_|  |_| |__|  |__|  |_| \__\ |__|  \__/        
                                                                              
                      - O R C A' S   B I G   F R I E N D -                    
                                      &                                       
                       - I N T E G R A L  F E E D E R -                       
                                                                              
 v1 FN, 2020, v2 2021, v3 2022-2024                                           
------------------------------------------------------------------------------


----------------------
SHARK INTEGRAL PACKAGE
----------------------

Number of atoms                             ...      1
Number of basis functions                   ...     36
Number of shells                            ...     14
Maximum angular momentum                    ...      2
Integral batch strategy                     ... SHARK/LIBINT Hybrid
RI-J (if used) integral strategy            ... SPLIT-RIJ (Revised 2003 algorithm where possible)
Printlevel                                  ...      1
Contraction scheme used                     ... SEGMENTED contraction
Prescreening option                         ... SCHWARTZ
   Thresh                                   ... 1.000e-10
   Tcut                                     ... 1.000e-11
   Tpresel                                  ... 1.000e-11 
Coulomb Range Separation                    ... NOT USED
Exchange Range Separation                   ... NOT USED
Multipole approximations                    ... NOT USED
Finite Nucleus Model                        ... NOT USED
CABS basis                                  ... NOT available
Auxiliary Coulomb fitting basis             ... AVAILABLE
   # of basis functions in Aux-J            ...     18
   # of shells in Aux-J                     ...     18
   Maximum angular momentum in Aux-J        ...      0
Auxiliary J/K fitting basis                 ... NOT available
Auxiliary Correlation fitting basis         ... NOT available
Auxiliary 'external' fitting basis          ... NOT available

Checking pre-screening integrals            ... done (  0.0 sec) Dimension = 14
   => SHARK Basis and OBASIS are compatible. Storing Pre-screening
Shell pair information
Shell pair cut-off parameter TPreSel        ...   1.0e-11
Total number of shell pairs                 ...       105
Shell pairs after pre-screening             ...       105
Total number of primitive shell pairs       ...       470
Primitive shell pairs kept                  ...       470
          la=0 lb=0:     21 shell pairs
          la=1 lb=0:     30 shell pairs
          la=1 lb=1:     15 shell pairs
          la=2 lb=0:     18 shell pairs
          la=2 lb=1:     15 shell pairs
          la=2 lb=2:      6 shell pairs

Checking whether 4 symmetric matrices of dimension 36 fit in memory
:Max Core in MB      =   4096.00
 MB in use           =      1.35
 MB left             =   4094.65
 MB needed           =      0.02
 Data fit in memory  = YES
Calculating RI/J V-Matrix + Cholesky decomp.... done (  0.0 sec)
Calculating Nuclear repulsion               ... done (  0.0 sec) ENN=      0.000000000000 Eh

Diagonalization of the overlap matrix:
Smallest eigenvalue                        ... 5.755e-03
Time for diagonalization                   ...    0.000 sec
Threshold for overlap eigenvalues          ... 1.000e-07
Number of eigenvalues below threshold      ... 0
Time for construction of square roots      ...    0.007 sec
Total time needed                          ...    0.016 sec

-------------------
DFT GRID GENERATION
-------------------

General Integration Accuracy     IntAcc      ... 4.388
Radial Grid Type                 RadialGrid  ... OptM3 with GC (2021)
Angular Grid (max. ang.)         AngularGrid ... 4 (Lebedev-302)
Angular grid pruning method      GridPruning ... 4 (adaptive)
Weight generation scheme         WeightScheme... mBecke (2022)
Basis function cutoff            BFCut       ... 1.0000e-10
Integration weight cutoff        WCut        ... 1.0000e-14
Partially contracted basis set               ... off
Rotationally invariant grid construction     ... off
Angular grids for H and He will be reduced by one unit

Total number of grid points                  ...    11810
Total number of batches                      ...      185
Average number of points per batch           ...       63
Average number of grid points per atom       ...    11810
Grids setup in   0.2 sec
Initializing property integral containers    ... done (  0.0 sec)

SHARK setup successfully completed in   0.3 seconds

Maximum memory used throughout the entire STARTUP-calculation: 7.7 MB
-------------------------------------------------------------------------------
                                 ORCA GUESS
                   Start orbitals & Density for SCF / CASSCF
-------------------------------------------------------------------------------

------------
SCF SETTINGS
------------
Hamiltonian:
 Ab initio Hamiltonian  Method          .... Hartree-Fock(GTOs)


General Settings:
 Integral files         IntName         .... cu2i2_veratrole_methoxyO_startA_smd_grid5_sp_atom53
 Hartree-Fock type      HFTyp           .... ROHF
 Total Charge           Charge          ....    0
 Multiplicity           Mult            ....    2
 Number of Electrons    NEL             ....   25
 Basis Dimension        Dim             ....   36
 Nuclear Repulsion      ENuc            ....      0.0000000000 Eh

Convergence Acceleration:
 AO-DIIS                CNVDIIS         .... on
   Start iteration      DIISMaxIt       ....    12
   Startup error        DIISStart       ....  0.200000
   # of expansion vecs  DIISMaxEq       ....     8
   Bias factor          DIISBfac        ....   1.050
   Max. coefficient     DIISMaxC        ....  10.000
 MO-DIIS                CNVKDIIS        .... off
 Trust-Rad. Augm. Hess. CNVTRAH         .... off
 SOSCF                 CNVSOSCF           .... on
   Start iteration     SOSCFMaxIt         ....   150
   Startup grad/error  SOSCFStart         ....  0.000100
   Hessian update      SOSCFHessUp        .... L-BFGS
   Autom. constraints  SOSCFAutoConstrain .... off
 Level Shifting         CNVShift        .... on
   Level shift para.    LevelShift      ....    1.0000
   Turn off err/grad.   ShiftErr        ....    0.0010
 Zerner damping         CNVZerner       .... off
 Static damping         CNVDamp         .... on
   Fraction old density DampFac         ....    0.7000
   Max. Damping (<1)    DampMax         ....    0.9800
   Min. Damping (>=0)   DampMin         ....    0.0000
   Turn off err/grad.   DampErr         ....    0.1000

SCF Procedure:
 Maximum # iterations   MaxIter         ....  1000
 SCF integral mode      SCFMode         .... Direct
   Integral package                     .... SHARK and LIBINT hybrid scheme
 Reset frequency        DirectResetFreq ....    20
 Integral Threshold     Thresh          ....  1.000e-10 Eh
 Primitive CutOff       TCut            ....  1.000e-11 Eh

Convergence Tolerance:
 Convergence Check Mode ConvCheckMode   .... Total+1el-Energy
 Convergence forced     ConvForced      .... -1
 Energy Change          TolE            ....  1.000e-06 Eh
 1-El. energy change                    ....  1.000e-03 Eh
 Orbital Gradient       TolG            ....  5.000e-05
 Orbital Rotation angle TolX            ....  5.000e-05
 DIIS Error             TolErr          ....  1.000e-06


--------------------
INITIAL GUESS: HCORE
--------------------

Orthogonalizing HCORE                      ... done
Diagonalizing the Hamiltonian (no sym.)    ... done
Back transforming and storing orbitals     ... done
AVERAGE-CONFIGURATION (SAHF) CASE FOUND

-------------------
FINAL ROHF SETTINGS
-------------------
Number of operators             ... 2
  operator   0:  10 orbitals  20 electrons n(mue)= 2.000
  operator   1:   3 orbitals   5 electrons n(mue)= 1.667
Vector coupling coefficients a and b (Zerner convention):
   1.000    1.000           1.000    1.000 
   1.000    0.960           1.000    0.960 


   => ROHF data were saved in the ROHF file

Making the density                         ... done

                      -----------------
                      INTIAL GUESS DONE 
                      -----------------

             **** ENERGY FILE WAS UPDATED (cu2i2_veratrole_methoxyO_startA_smd_grid5_sp_atom53.en.tmp) ****
Finished Guess after   0.1 sec
Maximum memory used throughout the entire GUESS-calculation: 4.2 MB

-------------------------------------------------------------------------------------------
                                      ORCA LEAN-SCF
                              memory conserving SCF solver
-------------------------------------------------------------------------------------------

----------------------------------------D-I-I-S--------------------------------------------
Iteration    Energy (Eh)           Delta-E    RMSDP     MaxDP     DIISErr   Damp  Time(sec)
-------------------------------------------------------------------------------------------
               ***  Starting incremental Fock matrix formation  ***
    1    -281.4619273526847110     0.00e+00  1.90e-01  4.31e+00  2.59e+00  0.700   0.2
    2    -286.2915750249925395    -4.83e+00  1.33e-01  3.02e+00  6.63e-01  0.700   0.2
                               ***Turning on AO-DIIS***
    3    -289.4437578762536418    -3.15e+00  9.24e-02  2.08e+00  1.52e-01  0.700   0.2
    4    -291.5275482786767043    -2.08e+00  6.36e-02  1.39e+00  1.06e-01  0.700   0.2
    5    -293.0285390822243130    -1.50e+00  4.51e-02  9.96e-01  4.24e-02  0.700   0.2
    6    -294.0958564864063760    -1.07e+00  1.05e-01  2.32e+00  2.50e-02  0.000   0.2
    7    -296.6280012381371307    -2.53e+00  2.41e-03  2.25e-02  5.61e-02  0.000   0.2
    8    -296.6429168055607306    -1.49e-02  2.56e-03  3.24e-02  2.30e-02  0.000   0.2
    9    -296.6481841362947307    -5.27e-03  3.39e-03  4.45e-02  2.03e-02  0.000   0.2
   10    -296.6497496411559496    -1.57e-03  3.33e-03  4.57e-02  1.64e-02  0.000   0.2
   11    -296.6462814052136423     3.47e-03  5.04e-04  7.39e-03  2.83e-02  0.000   0.2
   12    -296.6464361720013017    -1.55e-04  6.69e-04  1.01e-02  3.18e-02  0.000   0.2
   13    -296.6474405771269858    -1.00e-03  2.20e-03  3.07e-02  2.80e-02  0.000   0.1
   14    -296.6515732710599309    -4.13e-03  7.90e-04  9.17e-03  6.91e-03  0.000   0.2
   15    -296.6522471446854183    -6.74e-04  2.42e-04  3.25e-03  1.54e-03  0.000   0.2
   16    -296.6522783147073596    -3.12e-05  2.52e-04  3.53e-03  9.53e-04  0.000   0.2
   17    -296.6522901702607555    -1.19e-05  5.18e-05  8.50e-04  2.11e-04  0.000   0.2
                              *** Initializing SOSCF ***
---------------------------------------S-O-S-C-F--------------------------------------
Iteration    Energy (Eh)           Delta-E    RMSDP     MaxDP     MaxGrad    Time(sec)
--------------------------------------------------------------------------------------
   18    -296.6522905530964067    -3.83e-07  3.87e-06  8.69e-05  2.69e-05     0.2
               *** Restarting incremental Fock matrix formation ***
   19    -296.6522905559208994    -2.82e-09  8.18e-07  1.85e-05  5.76e-06     0.1
                  *** Gradient check signals convergence ***

               *****************************************************
               *                     SUCCESS                       *
               *           SCF CONVERGED AFTER  19 CYCLES          *
               *****************************************************

             **** ENERGY FILE WAS UPDATED (cu2i2_veratrole_methoxyO_startA_smd_grid5_sp_atom53.en.tmp) ****

----------------
TOTAL SCF ENERGY
----------------

Total Energy       :       -296.65229055597274 Eh           -8072.31921 eV

Components:
Nuclear Repulsion  :          0.00000000000000 Eh               0.00000 eV
Electronic Energy  :       -296.65229055597274 Eh           -8072.31921 eV
One Electron Energy:       -517.36367363767101 Eh          -14078.18128 eV
Two Electron Energy:        220.71138308169827 Eh            6005.86207 eV

Virial components:
Potential Energy   :       -410.32692845390130 Eh          -11165.56337 eV
Kinetic Energy     :        113.67463789792856 Eh            3093.24415 eV
Virial Ratio       :          3.60966118776947

---------------
SCF CONVERGENCE
---------------

  Last Energy change         ...    2.8245e-09  Tolerance :   1.0000e-06
  Last MAX-Density change    ...    1.8507e-05  Tolerance :   1.0000e-05
  Last RMS-Density change    ...    8.1778e-07  Tolerance :   1.0000e-06
  Last DIIS Error            ...    2.6889e-05  Tolerance :   1.0000e-06
  Last Orbital Gradient      ...    5.7639e-06  Tolerance :   5.0000e-05
  Last Orbital Rotation      ...    4.3254e-06  Tolerance :   5.0000e-05


----------------
ORBITAL ENERGIES
----------------

  NO   OCC          E(Eh)            E(eV) 
   0   2.0000      -7.759705      -211.1523 
   1   2.0000      -5.607389      -152.5848 
   2   2.0000      -5.607389      -152.5848 
   3   2.0000      -5.607389      -152.5848 
   4   2.0000      -2.301400       -62.6243 
   5   2.0000      -2.301400       -62.6243 
   6   2.0000      -2.301400       -62.6243 
   7   2.0000      -2.301400       -62.6243 
   8   2.0000      -2.301400       -62.6243 
   9   2.0000      -0.876480       -23.8502 
  10   1.6667      -0.402041       -10.9401 
  11   1.6667      -0.402041       -10.9401 
  12   1.6667      -0.402041       -10.9401 
  13   0.0000       0.218473         5.9450 
  14   0.0000       0.218473         5.9450 
  15   0.0000       0.218473         5.9450 
  16   0.0000       0.288427         7.8485 
  17   0.0000       0.288427         7.8485 
  18   0.0000       0.288427         7.8485 
  19   0.0000       0.288427         7.8485 
  20   0.0000       0.288427         7.8485 
  21   0.0000       0.394187        10.7264 
  22   0.0000       1.295229        35.2450 
  23   0.0000       1.295229        35.2450 
*Only the first 10 virtual orbitals were printed.

Warning: MO coefficients are modified such that the real solid harmonic m components
have the correct order within each shell (0, +1, -1, +2, -2, ...) and all s orbitals
come before all p orbitals etc. (with increasing orbital energy within each block of given angular momentum).

--------------------------
ATOM BASIS FOR ELEMENT I 
--------------------------
 NewGTO I 
 S 11
    1       5899.579153300000        -0.000149581187
    2        898.542387650000        -0.000956920814
    3        200.372379120000        -0.002649037331
    4         31.418053840000         0.024376206307
    5         15.645987838000        -0.594203869835
    6         11.815741857000         0.756714252613
    7          6.461445828700         0.423332105243
    8          2.383806757900        -0.847709343280
    9          1.171208966200        -0.550293990302
   10          0.321158757600        -0.020386936150
   11          0.123879193600         0.003074023324
 S 11
    1       5899.579153300000        -0.000065616767
    2        898.542387650000        -0.000419772374
    3        200.372379120000        -0.001162052987
    4         31.418053840000         0.010693108405
    5         15.645987838000        -0.260659362433
    6         11.815741857000         0.345080738363
    7          6.461445828700         0.193050091161
    8          2.383806757900        -0.540057000572
    9          1.171208966200        -0.450210220050
   10          0.321158757600         0.795190103419
   11          0.123879193600         0.506162073846
 S 11
    1       5899.579153300000        -0.000043519547
    2        898.542387650000        -0.000278409076
    3        200.372379120000        -0.000770717936
    4         31.418053840000         0.007092078018
    5         15.645987838000        -0.172879247518
    6         11.815741857000         0.235500544189
    7          6.461445828700         0.131747143408
    8          2.383806757900        -0.201592298688
    9          1.171208966200        -1.003764968080
   10          0.321158757600         2.794164089994
   11          0.123879193600        -2.161748100024
 S 11
    1       5899.579153300000         0.000296140079
    2        898.542387650000         0.001894506999
    3        200.372379120000         0.005244550744
    4         31.418053840000        -0.048259890280
    5         15.645987838000         1.176401824022
    6         11.815741857000        -1.545413832139
    7          6.461445828700        -0.864557907786
    8          2.383806757900         5.427199006089
    9          1.171208966200        -5.679081587243
   10          0.321158757600         2.622774708250
   11          0.123879193600        -0.996604443449
 S 11
    1       5899.579153300000         0.001239270515
    2        898.542387650000         0.007928027408
    3        200.372379120000         0.021947103946
    4         31.418053840000        -0.201955301816
    5         15.645987838000         4.922940853117
    6         11.815741857000        -4.535435605768
    7          6.461445828700        -2.537279424239
    8          2.383806757900         4.058255429356
    9          1.171208966200        -2.624702883823
   10          0.321158757600         0.809930450535
   11          0.123879193600        -0.290310105313
 S 11
    1       5899.579153300000         0.001019999679
    2        898.542387650000         0.006525278631
    3        200.372379120000         0.018063884120
    4         31.418053840000        -0.166222257770
    5         15.645987838000         4.051898296859
    6         11.815741857000        -2.448583164625
    7          6.461445828700        -1.369822046253
    8          2.383806757900         1.441255356118
    9          1.171208966200        -0.849081651887
   10          0.321158757600         0.250277135038
   11          0.123879193600        -0.089375421947
 P 10
    1        197.300305470000        -0.000569308672
    2         20.061411349000        -0.050939345380
    3          9.763146048500         0.219826187197
    4         12.984316904000         0.041472443919
    5          3.619950300800        -0.328717308445
    6          2.023227309000        -0.554226539585
    7          1.036749055900        -0.268650401124
    8          0.459378160000        -0.025779789341
    9          0.191165329300        -0.000792835731
   10          0.074878813000        -0.000552408838
 P 10
    1        197.300305470000        -0.000187616581
    2         20.061411349000        -0.016787142506
    3          9.763146048500         0.072444070561
    4         12.984316904000         0.017855788957
    5          3.619950300800        -0.141527875657
    6          2.023227309000        -0.238619941102
    7          1.036749055900        -0.115666317498
    8          0.459378160000         0.361697171174
    9          0.191165329300         0.579489985442
   10          0.074878813000         0.255819334882
 P 10
    1        197.300305470000        -0.000090122391
    2         20.061411349000        -0.008063772507
    3          9.763146048500         0.034798805353
    4         12.984316904000         0.008740758371
    5          3.619950300800        -0.069280666724
    6          2.023227309000        -0.116809134147
    7          1.036749055900        -0.056620927549
    8          0.459378160000        -0.039797286430
    9          0.191165329300         1.383659591423
   10          0.074878813000        -1.597650964706
 P 10
    1        197.300305470000        -0.000338860657
    2         20.061411349000        -0.030319826320
    3          9.763146048500         0.130843688053
    4         12.984316904000         0.035413932161
    5          3.619950300800        -0.280696562856
    6          2.023227309000        -0.473262224739
    7          1.036749055900        -0.229404543868
    8          0.459378160000         2.488628050745
    9          0.191165329300        -2.608426076007
   10          0.074878813000         0.964724270583
 P 10
    1        197.300305470000        -0.004045894324
    2         20.061411349000        -0.362009606598
    3          9.763146048500         1.562234279882
    4         12.984316904000         0.031419217556
    5          3.619950300800        -0.249033807812
    6          2.023227309000        -0.419877937661
    7          1.036749055900        -0.203527561961
    8          0.459378160000         0.607585063876
    9          0.191165329300        -0.413974362227
   10          0.074878813000         0.140177102606
 D 8
    1        119.126717450000         0.000820619264
    2         33.404240134000         0.006793550649
    3         17.805918203000        -0.010241500432
    4          4.899051035300         0.225238572670
    5          2.451675310600         0.438944195717
    6          1.182069343200         0.365376605741
    7          0.529231100700         0.123025346358
    8          0.170000000000         0.007604199167
 D 8
    1        119.126717450000         0.000189389367
    2         33.404240134000         0.001567872351
    3         17.805918203000        -0.002363618995
    4          4.899051035300         0.051982438746
    5          2.451675310600         0.101303207068
    6          1.182069343200         0.084324664298
    7          0.529231100700        -0.004191707736
    8          0.170000000000        -1.005131452515
 D 8
    1        119.126717450000         0.000655168577
    2         33.404240134000         0.005423856235
    3         17.805918203000        -0.008176641177
    4          4.899051035300         0.179826676778
    5          2.451675310600         0.350445641130
    6          1.182069343200         0.291710518335
    7          0.529231100700        -1.469003982439
    8          0.170000000000         0.775922616971
 end
-------------------------------------------
RADIAL EXPECTATION VALUES <R**-3> TO <R**3>
-------------------------------------------
   0 :     0.000000     2.338848     1.446881     0.757977     0.628160     0.568145
   1 :     3.611535     2.088146     1.368904     0.808965     0.722520     0.711218
   2 :     3.611535     2.088146     1.368904     0.808965     0.722520     0.711218
   3 :     3.611535     2.088146     1.368904     0.808965     0.722520     0.711218
   4 :     3.185137     1.829426     1.252572     0.920887     0.972257     5.860447
   5 :     3.185137     1.829426     1.252572     0.920887     0.972257     5.860447
   6 :     3.185137     1.829426     1.252572     0.920887     0.972257     5.860447
   7 :     3.185137     1.829426     1.252572     0.920887     0.972257     5.860447
   8 :     3.185137     1.829426     1.252572     0.920887     0.972257     5.860447
   9 :     0.000000     0.478811     0.592627     2.014246     4.596107    11.689914
  10 :     0.371690     0.331357     0.488693     2.477200     7.062455    22.849250
  11 :     0.371690     0.331357     0.488693     2.477200     7.062455    22.849250
  12 :     0.371690     0.331357     0.488693     2.477200     7.062455    22.849250
  13 :     0.103364     0.113456     0.267849     4.574515    23.078225   123.495913
  14 :     0.103364     0.113456     0.267849     4.574515    23.078225   123.495913
  15 :     0.103364     0.113456     0.267849     4.574515    23.078225   123.495913
  16 :     0.170816     0.183147     0.367652     3.093389    10.332432   183.424744
  17 :     0.170816     0.183147     0.367652     3.093389    10.332432   183.424744
  18 :     0.170816     0.183147     0.367652     3.093389    10.332432   183.424744
  19 :     0.170816     0.183147     0.367652     3.093389    10.332432   183.424744
  20 :     0.170816     0.183147     0.367652     3.093389    10.332432   183.424744
  21 :     0.000000     0.290107     0.425030     3.052281    10.659154    40.240400
  22 :     0.806430     0.542385     0.576359     2.598663     9.107747    39.702827
  23 :     0.806430     0.542385     0.576359     2.598663     9.107747    39.702827
  24 :     0.806430     0.542385     0.576359     2.598663     9.107747    39.702827
  25 :     1.198173     0.724084     0.679401     2.086146     5.602881    90.621261
  26 :     1.198173     0.724084     0.679401     2.086146     5.602881    90.621261
  27 :     1.198173     0.724084     0.679401     2.086146     5.602881    90.621261
  28 :     1.198173     0.724084     0.679401     2.086146     5.602881    90.621261
  29 :     1.198173     0.724084     0.679401     2.086146     5.602881    90.621261
  30 :     0.000000     1.657282     1.034250     1.423466     2.949088     8.326865
  31 :    43.330521    10.312491     2.942328     0.452053     0.399688     0.966553
  32 :    43.330521    10.312491     2.942328     0.452053     0.399688     0.966553
  33 :    43.330521    10.312491     2.942328     0.452053     0.399688     0.966553
  34 :     0.000000    13.672268     2.751005     0.503877     0.447601     0.828688
  35 :     0.000000   104.939876     7.885195     0.185651     0.068353     0.084659
Making the total density                ... o.k.
Making exponents                        ... done
Making rho(0)                           ... done (         0.260836383)
Integral calculation                    ... Solving the equation system             ... done
atomic density will be written to file cu2i2_veratrole_methoxyO_startA_smd_grid5_sp_atom53.adf

-------
TIMINGS
-------

Total SCF time: 0 days 0 hours 0 min 3 sec 

Total time                  ....       3.396 sec
Sum of individual times     ....       3.154 sec  ( 92.9%)

SCF preparation             ....       0.088 sec  (  2.6%)
Fock matrix formation       ....       1.348 sec  ( 39.7%)
  Startup                   ....       0.067 sec  (  5.0% of F)
  Coulomb+Exchange Fock     ....       0.843 sec  ( 62.5% of F)
Diagonalization             ....       0.000 sec  (  0.0%)
Density matrix formation    ....       0.450 sec  ( 13.2%)
Total Energy calculation    ....       0.085 sec  (  2.5%)
Population analysis         ....       0.000 sec  (  0.0%)
Orbital Transformation      ....       0.050 sec  (  1.5%)
Orbital Orthonormalization  ....       0.000 sec  (  0.0%)
DIIS solution               ....       1.068 sec  ( 31.5%)
SOSCF solution              ....       0.065 sec  (  1.9%)
Finished LeanSCF after   3.5 sec

Maximum memory used throughout the entire LEANSCF-calculation: 7.7 MB

-------------------------   --------------------
FINAL SINGLE POINT ENERGY      -296.652290555973
-------------------------   --------------------


------------------------------------------------------------------------------
                              ORCA PROPERTY CALCULATIONS
------------------------------------------------------------------------------

GBWName                                 ... cu2i2_veratrole_methoxyO_startA_smd_grid5_sp_atom53.gbw
Number of atoms                         ...      1
Number of basis functions               ...     36
Max core memory                         ...   4096 MB

Electric properties:
Dipole moment                           ... YES
Quadrupole moment                       ...  NO
Static polarizability (Dipole/Dipole)   ...  NO
Static polarizability (Dipole/Quad.)    ...  NO
Static polarizability (Quad./Quad.)     ...  NO
Static polarizability (Velocity)        ...  NO
Static hyperpolarizability              ...  NO

Atomic electric properties:
Dipole moment                           ...  NO
Quadrupole moment                       ...  NO
Static polarizability                   ...  NO

Choice of electric origin               ... Center of mass
Position of electric origin             ...     0.000000     0.000000     0.000000

General magnetic properties:
Magnetizability                         ...  NO

EPR properties:
g-Tensor (aka g-matrix)                 ...  NO
Zero-Field splitting spin-orbit         ...  NO
Zero-field splitting spin-spin          ...  NO
Hyperfine couplings                     ...  NO (   0 nuclei)
Quadrupole couplings                    ...  NO (   0 nuclei)
Contact density                         ...  NO (   0 nuclei)

NMR properties:
Chemical shifts                         ...  NO (   0 nuclei)
Spin-rotation constants                 ...  NO (   0 nuclei)
Spin-spin couplings                     ...  NO (   0 nuclei,    0 pairs)

Choice of magnetic origin               ... GIAO
Position of magnetic origin             ...     0.000000     0.000000     0.000000

Properties with geometric perturbations:
SCF Hessian                             ...  NO
IR spectrum                             ...  NO
VCD spectrum                            ...  NO
X-ray spectroscopy properties:
SCF XES/XAS/RIXS spectra                ...  NO

SCF SOC stabilization energy            ...  NO
Diagonal Born-Oppenheimer correction    ...  NO

-------------
DIPOLE MOMENT
-------------

Method             : SCF
Type of density    : Electron Density
Multiplicity       :   2
Irrep              :   0
Energy             :  -296.6522905559727405 Eh
Basis              : AO
                                X                 Y                 Z
Electronic contribution:     -0.000000000       0.000000000       0.000000000
Nuclear contribution   :      0.000000000       0.000000000       0.000000000
                        -----------------------------------------
Total Dipole Moment    :     -0.000000000       0.000000000       0.000000000
                        -----------------------------------------
Magnitude (a.u.)       :      0.000000000
Magnitude (Debye)      :      0.000000000



--------------------
Rotational spectrum 
--------------------
 
Rotational constants in cm-1:             0.000000             0.000000             0.000000 
Rotational constants in MHz :             0.000000             0.000000             0.000000 

Dipole components along the rotational axes: 
x,y,z [a.u.] :    -0.000000     0.000000     0.000000 
x,y,z [Debye]:    -0.000000     0.000000     0.000000 

 

Dipole moment calculation done in   0.0 sec 

Maximum memory used throughout the entire PROP-calculation: 2.0 MB

--------------------------------
SUGGESTED CITATIONS FOR THIS RUN
--------------------------------

Below you find a list of papers that are relevant to this ORCA run
We neither can nor want to force you to cite these papers, but we appreciate if you do
You receive ORCA, which is the product of decades of hard work by many enthusiastic individuals, for free
The only thing we kindly ask in return is that you cite our papers,
We deeply appreciate it, if you show your appreciation for ORCA by not just citing the generic ORCA reference.

Please note that relegating all ORCA citations to the supporting information does *not* help us.
SI sections are not indexed - citations you put there will not count into any citation statistics
But we need these citations in order to attract the funding resources that allow us to do what we are doing

Therefore, if you are a happy ORCA user, please consider citing a few of the papers listed below in the main body of your paper

In addition to the list printed below, the program has created the file cu2i2_veratrole_methoxyO_startA_smd_grid5_sp_atom53.bibtex that contains the list in bibtex format
You can import this file easily into all common literature databanks and citation aid programs

It goes without saying that in many instances, there are alternative algorithms to achieve similar
results as the ones you have gotten from ORCA. It is, of course, also the case that in some instances
ORCA just re-implements algorithms worked out by others. We are fully aware of that and we are also
fully appreciative of our colleagues work. Hence this citation list should not be read as indicating
that the listed papers, which are focused on our own work, are the only ones worth citing. It simply
meant to make it easier for users to cite ORCA specific papers. It is not a substitute for doing your
own literature research and citing the relevant literature in a scientifically appropriate manner.

List of essential papers. We consider these as the minimum necessary citations

  1. Neese, F.
     Software update: the ORCA program system, version 6.0
     WIRES Comput. Molec. Sci. 2025 15(1), e70019
     doi.org/10.1002/wcms.70019

List of papers to cite with high priority. The work reported in these papers was absolutely
necessary for this run to complete.
Our perspective: the developers of density functionals and basis sets usually get cited in chemistry papers
Good! But without the algorithms to do something with them, the functionals or basis sets would not do anything.
Hence, in our opinion, the algorithm design and method developments papers are equally worthy of getting cited

  1. Neese, F.
     The SHARK Integral Generation and Digestion System
     J. Comp. Chem. 2022 44(3), 381
     doi.org/10.1002/jcc.26942

List of suggested additional citations. These are papers that are important in the 'surrounding' of 
of this run, or papers that preceded the highly important papers. If you like your results we are grateful for a citation.

  1. Neese, F.
     The ORCA program system
     WIRES Comput. Molec. Sci. 2012 2(1), 73-78
     doi.org/10.1002/wcms.81
  2. Neese, F.
     Software update: the ORCA program system, version 4.0
     WIRES Comput. Molec. Sci. 2018 8(1), 1-6
     doi.org/10.1002/wcms.1327
  3. Neese, F.; Wennmohs, F.; Becker, U.; Riplinger, C.
     The ORCA quantum chemistry program package
     J. Chem. Phys. 2020 152(22), 224108
     doi.org/10.1063/5.0004608
  4. Neese, F.
     Software update: The ORCA program system—Version 5.0
     WIRES Comput. Molec. Sci. 2022 12(1), e1606
     doi.org/10.1002/wcms.1606

List of optional additional citations

  1. Neese, F.
     Approximate second-order SCF convergence for spin unrestricted wavefunctions
     Chem. Phys. Lett. 2000 325(1-3), 93-98
     doi.org/10.1016/s0009-2614(00)00662-x

Timings for individual modules:

Sum of individual times          ...        4.103 sec (=   0.068 min)
Startup calculation              ...        0.387 sec (=   0.006 min)   9.4 %
SCF iterations                   ...        3.650 sec (=   0.061 min)  88.9 %
Property calculations            ...        0.067 sec (=   0.001 min)   1.6 %
                             ****ORCA TERMINATED NORMALLY****
TOTAL RUN TIME: 0 days 0 hours 0 minutes 4 seconds 572 msec
