
                                 *****************
                                 * O   R   C   A *
                                 *****************

                                            #,                                       
                                            ###                                      
                                            ####                                     
                                            #####                                    
                                            ######                                   
                                           ########,                                 
                                     ,,################,,,,,                         
                               ,,#################################,,                 
                          ,,##########################################,,             
                       ,#########################################, ''#####,          
                    ,#############################################,,   '####,        
                  ,##################################################,,,,####,       
                ,###########''''           ''''###############################       
              ,#####''   ,,,,##########,,,,          '''####'''          '####       
            ,##' ,,,,###########################,,,                        '##       
           ' ,,###''''                  '''############,,,                           
         ,,##''                                '''############,,,,        ,,,,,,###''
      ,#''                                            '''#######################'''  
     '                                                          ''''####''''         
             ,#######,   #######,   ,#######,      ##                                
            ,#'     '#,  ##    ##  ,#'     '#,    #''#        ,####,    ,#,          
            ##       ##  ##   ,#'  ##            #'  '#       #'       ,# #          
            ##       ##  #######   ##           ,######,      #####,      #          
            '#,     ,#'  ##    ##  '#,     ,#' ,#      #,     #,   #      #          
             '#######'   ##     ##  '#######'  #'      '#     '####' #    #          



                #########################################################
                #                        -***-                          #
                #          Department of theory and spectroscopy        #
                #                                                       #
                #                      Frank Neese                      #
                #                                                       #
                #     Directorship, Architecture, Infrastructure        #
                #                    SHARK, DRIVERS                     #
                #        Core code/Algorithms in most modules           #
                #                                                       #
                #        Max Planck Institute fuer Kohlenforschung      #
                #                Kaiser Wilhelm Platz 1                 #
                #                 D-45470 Muelheim/Ruhr                 #
                #                      Germany                          #
                #                                                       #
                #                  All rights reserved                  #
                #                        -***-                          #
                #########################################################


                         Program Version 6.1.1  -  RELEASE   -
                                (GIT: $487d211c$)
                          ($2025-11-21 10:33:24 +0100$)


 With contributions from (in alphabetic order):
[Max-Planck-Institut fuer Kohlenforschung]                               
  Daniel Aravena         : Magnetic Suceptibility                        
  Michael Atanasov       : Ab Initio Ligand Field Theory (pilot matlab implementation)
  Alexander A. Auer      : GIAO ZORA, VPT2 properties, NMR spectrum      
  Ute Becker             : All parallelization in ORCA, NUMFREQ, NUMCALC 
  Giovanni Bistoni       : ED, misc. LED, open-shell LED, HFLD           
  Dmytro Bykov           : pre 5.0 version of the SCF Hessian            
  Marcos Casanova-Páez   : Triplet and SCS-CIS(D). UHF-(DLPNO)-IP/EA/STEOM-CCSD. UHF-CVS-IP/STEOM-CCSD   
  Vijay G. Chilkuri      : MRCI spin determinant printing, contributions to CSF-ICE 
  Pauline Colinet        : FMM embedding                                 
  Dipayan Datta          : RHF DLPNO-CCSD density                        
  Achintya Kumar Dutta   : EOM-CC, STEOM-CC                              
  Nicolas Foglia         : Exact transition moments, OPA infrastructure, MCD improvements    
  Dmitry Ganyushin       : Spin-Orbit,Spin-Spin,Magnetic field MRCI      
  Miquel Garcia-Rates    : C-PCM and meta-GGA Hessian, CCSD/C-PCM, Gaussian charge scheme 
  Tiago L. C. Gouveia    : GS-ROHF, GS-ROCIS                             
  Yang Guo               : DLPNO-NEVPT2, F12-NEVPT2, CIM, IAO-localization        
  Andreas Hansen         : Spin unrestricted coupled pair/coupled cluster methods 
  Ingolf Harden          : AUTO-CI MPn and infrastructure                
  Benjamin Helmich-Paris : MC-RPA, TRAH-(SCF,CASSCF), AVAS, COSX integrals, SCF dyn. polar., MC-PDFT, srDFT 
  Lee Huntington         : MR-EOM, pCC                                   
  Robert Izsak           : Overlap fitted RIJCOSX, COSX-SCS-MP3, EOM     
  Riya Kayal             : Wick's Theorem for AUTO-CI, AUTO-CI UHF-CCSDT 
  Emily Kempfer          : AUTO-CI RHF CISDT and CCSDT, approximate NEVPT4
  Christian Kollmar      : KDIIS, OOCD, Brueckner-CCSD(T), CCSD density, CASPT2, CASPT2-K, improved NEVPT2 
  Axel Koslowski         : Symmetry handling                             
  Simone Kossmann        : meta-GGA functionals, TD-DFT gradient, OOMP2, (MP2 Hessian; deprecated post 5.0) 
  Lucas Lang             : DCDCAS, Hyperfine gauge corrections, ICE-SOC+SSC
  Marvin Lechner         : AUTO-CI (C++ implementation), FIC-MRCC        
  Spencer Leger          : CASSCF response                               
  Dagmar Lenk            : GEPOL surface, SMD, ORCA-2-JSON               
  Dimitrios Liakos       : Extrapolation schemes; Compound Job, Property file
  Dimitrios Manganas     : Further ROCIS development; embedding schemes. LFT, Crystal Embedding 
  Dimitrios Pantazis     : SARC Basis sets                               
  Anastasios Papadopoulos: AUTO-CI, single reference methods and gradients 
  Taras Petrenko         : pre 6.0 DFT Hessian and TD-DFT gradient,  ECA, NRVS 
  Petra Pikulova         : Analytic Raman intensities                    
  Peter Pinski           : DLPNO-MP2, DLPNO-MP2 Gradient                 
  Shashank Vittal Rao    : ES-AILFT, MagRelax                            
  Christoph Reimann      : Effective Core Potentials                     
  Marius Retegan         : Local ZFS, SOC                                
  Christoph Riplinger    : Optimizer, TS searches, QM/MM, DLPNO-CCSD(T), (RO)-DLPNO pert. Triples 
  Michael Roemelt        : Original ROCIS implementation, recursive CI coupling coefficients
  Masaaki Saitow         : Open-shell DLPNO-CCSD energy and density      
  Barbara Sandhoefer     : DKH picture change effects                    
  Yorick L. A. Schmerwitz: GMF and freeze-and-release deltaSCF, NEB S-IDPP initial path                    
  Kantharuban Sivalingam : CASSCF convergence/infrastructure, NEVPT2, NEVPT3, NEVPT4(SD), FIC-MRCI and CEPA variants
  Bernardo de Souza      : ESD, SOC TD-DFT                               
  Georgi L. Stoychev     : AutoAux, RI-MP2 NMR, DLPNO-MP2 response, X2C  
  Van Anh Tran           : RI-MP2 g-tensors                              
  Willem Van den Heuvel  : Paramagnetic NMR                              
  Zikuan Wang            : NOTCH, Electric field optimization            
  Frank Wennmohs         : Technical directorship and infrastructure     
  Hang Xu                : AUTO-CI-Response properties                   
                                                                         
[FACCTs GmbH]                                                            
  Markus Bursch, Nicolas Foglia, Miquel Garcia-Rates, Ingolf Harden, Hagen Neugebauer, Anastasios Papadopoulos, 
  Christoph Riplinger, Bernardo de Souza, Georgi L. Stoychev                                                    
                                                                 
  APM, various basis sets, CI-OPT, improved COSX, DLPNO-Multilevel,           
  DOCKER, DRACO, updates on ESD, Fragmentator, GOAT, IRC, LR-CPCM, L-BFGS, MBIS, meta-GGA TD-DFT gradient, ML-optimized integration grids, 
  MM, NACMEs, nearIR, NEB, NEB-TS, NL-DFT gradient (VV10), 2- and 3-layer-ONIOM, interface openCOSMO-RS, QMMM,   
  Crystal-QMMM, RESP, rigid body optimization, SF, symmetry and pop. for TD-DFT, various functionals, SOLVATOR                                   
                                                                         
[Other institutions]                                                     
  V. Asgeirsson          : NEB                                           
  Christoph Bannwarth    : sTDA-DFT, sTD-DFT, PBEh-3c, B97-3c, D3        
  Giovanni Bistoni       : ETS/NOCV, ADLD/ADEX, COVALED                  
  Martin Brehm           : Molecular dynamics                            
  Ronald Cardenas        : ETS/NOCV                                      
  Martina Colucci        : COVALED                                       
  Sebastian Ehlert       : rSCAN, r2SCAN, r2SCAN-3c, D4, dhf basis sets  
  Marvin Friede          : D4 for Fr, Ra, Ac-Lr                          
  Lars Goerigk           : TD-DFT with DH, B97 family of functionals     
  Stefan Grimme          : VdW corrections, initial TS optimization, DFT functionals, gCP, sTDA/sTD-DF 
  Waldemar Hujo          : DFT-NL                                        
  H. Jonsson             : NEB                                           
  Holger Kruse           : gCP                                           
  Marcel Mueller         : wB97X-3c, vDZP basis set                      
  Hagen Neugebauer       : wr2SCAN, Native XTB                           
  Gianluca Regni         : ADLD/ADEX                                     
  Tobias Risthaus        : pre 6.0 range-separated hybrid DFT and stability analysis
  Lukas Wittmann         : regularized MP2, r2SCAN double-hybrids, wr2SCAN        
                                                                         
We gratefully acknowledge several colleagues who have allowed us to      
interface, adapt or use parts of their codes:                            
  Ed Valeev, F. Pavosevic, A. Kumar             : LibInt (2-el integral package), F12 methods 
  Garnet Chan, S. Sharma, J. Yang, R. Olivares  : DMRG                   
  Ulf Ekstrom                                   : XCFun DFT Library      
  Mihaly Kallay                                 : mrcc  (arbitrary order and MRCC methods)
  Frank Weinhold                                : gennbo (NPA and NBO analysis)           
  Simon Mueller                                 : openCOSMO-RS                            
  Christopher J. Cramer and Donald G. Truhlar   : smd solvation model                     
  S Lehtola, MJT Oliveira, MAL Marques          : LibXC Library                           
  Liviu Ungur et al                             : ANISO software                          


 Your calculation uses the libint2 library for the computation of 2-el integrals
 For citations please refer to: http://libint.valeyev.net

 Your ORCA version has been built with support for libXC version: 7.0.0
 For citations please refer to: https://libxc.gitlab.io

 This ORCA versions uses:
   CBLAS   interface :  Fast vector & matrix operations
   LAPACKE interface :  Fast linear algebra routines
   SCALAPACK package :  Parallel linear algebra routines
   Shared memory     :  Shared parallel matrices
   BLAS/LAPACK       :  OpenBLAS 0.3.29  USE64BITINT DYNAMIC_ARCH NO_AFFINITY Zen SINGLE_THREADED
        Core in use  :  Zen
   Copyright (c) 2011-2014, The OpenBLAS Project


  ***********************************
  * Starting time: Thu Apr 30 15:57:16 2026
  * Host name:     e46e9c79961b
  * Process ID:    1497
  * Working dir.:  /workspace/orca_calc_grid5_v9/calc
  ***********************************

NOTE: MaxCore=8000 MB was set to SCF,MP2,MDCI,CIPSI,MRCI,RASCI and CIS
      => If you want to overwrite this, your respective input block should be placed after the MaxCore statement
Your calculation utilizes the atom-pairwise dispersion correction
with the Becke-Johnson damping scheme (D3BJ)


================================================================================

cite the ECPs for I  [Def2-ECP] as follows:
Ce-Yb(ecp-28): M. Dolg, H. Stoll, H.Preuss, J. Chem. Phys., 1989, 90, 1730-1734.
Y-Cd(ecp-28), Hf-Hg(ecp-46): D. Andrae,U. Haeussermann, M. Dolg, H. Stoll, H. Preuss, Theor. Chim. Acta, 1990, 77, 123-141.
In-Sb(ecp-28), Tl-Bi(ecp-46): B. Metz, H. Stoll, M. Dolg, J. Chem. Phys., 2000, 113, 2563-2569.
Te-Xe(ecp-28), Po-Rn(ecp-46): K. A. Peterson, D. Figgen, E. Goll, H. Stoll, M. Dolg, J. Chem. Phys., 2003, 119, 11113-11123.
Rb(ecp-28), Cs(ecp-46): T. Leininger, A. Nicklass, W. Kuechle, H. Stoll, M. Dolg, A. Bergner, Chem. Phys. Lett., 1996, 255, 274-280.
Sr(ecp-28), Ba(ecp-46): M. Kaupp, P. V. Schleyer, H. Stoll and H. Preuss, J. Chem. Phys., 1991, 94, 1360-1366.
La(ecp-46): M. Dolg, H. Stoll, A. Savin, H. Preuss, Theor. Chim. Acta, 1989, 75, 173-194.
Lu(ecp-28): X. Cao, M. Dolg, J. Chem. Phys., 2001, 115, 7348-7355.

ECP parameters for I  [Def2-ECP] have been obtained from:
TURBOMOLE (7.0.2)

----- Orbital basis set information -----
Your calculation utilizes the basis: def2-TZVP
   F. Weigend and R. Ahlrichs, Phys. Chem. Chem. Phys. 7, 3297 (2005).

----- AuxJ basis set information -----
Your calculation utilizes the auxiliary basis: def2/J
   H-Rn: F. Weigend, Phys. Chem. Chem. Phys. 8, 1057 (2006).
   Fr-Lr: K. Eichkorn, F. Weigend, O. Treutler, R. Ahlrichs; Theor. Chem. Acc. 97, 119 (1997).

================================================================================
                                        WARNINGS
                       Please study these warnings very carefully!
================================================================================


================================================================================
                                       INPUT FILE
================================================================================
NAME = cu2i2_rhombic_grid5_sp.inp
|  1> ! B3LYP D3BJ def2-TZVP RIJCOSX def2/J TightSCF SP
|  2> 
|  3> %pal nprocs 4 end
|  4> %maxcore 8000
|  5> 
|  6> %method
|  7>   Grid 5
|  8>   FinalGrid 6
|  9> end
| 10> 
| 11> * xyz 0 1
| 12>   Cu    -1.232878   -0.000000    0.000000
| 13>   Cu     1.232876   -0.000000    0.000000
| 14>   I      0.000001    2.252402   -0.000000
| 15>   I      0.000001   -2.252401   -0.000000
| 16> *
| 17> 
| 18>                          ****END OF INPUT****
================================================================================

                       ****************************
                       * Single Point Calculation *
                       ****************************

---------------------------------
CARTESIAN COORDINATES (ANGSTROEM)
---------------------------------
  Cu    -1.232878   -0.000000    0.000000
  Cu     1.232876   -0.000000    0.000000
  I      0.000001    2.252402   -0.000000
  I      0.000001   -2.252401   -0.000000

----------------------------
CARTESIAN COORDINATES (A.U.)
----------------------------
  NO LB      ZA    FRAG     MASS         X           Y           Z
   0 Cu   29.0000    0    63.550   -2.329802   -0.000000    0.000000
   1 Cu   29.0000    0    63.550    2.329798   -0.000000    0.000000
   2 I    25.0000*   0   126.900    0.000002    4.256423   -0.000000
   3 I    25.0000*   0   126.900    0.000002   -4.256421   -0.000000
* core charge reduced due to ECP

--------------------------------
INTERNAL COORDINATES (ANGSTROEM)
--------------------------------
 Cu     0   0   0     0.000000000000     0.00000000     0.00000000
 Cu     1   0   0     2.465754000000     0.00000000     0.00000000
 I      2   1   0     2.567741329501    61.30546216     0.00000000
 I      2   1   3     2.567740452309    61.30545144   180.00000000

---------------------------
INTERNAL COORDINATES (A.U.)
---------------------------
 Cu     0   0   0     0.000000000000     0.00000000     0.00000000
 Cu     1   0   0     4.659599773621     0.00000000     0.00000000
 I      2   1   0     4.852327895508    61.30546216     0.00000000
 I      2   1   3     4.852326237856    61.30545144   180.00000000

---------------------
BASIS SET INFORMATION
---------------------
There are 2 groups of distinct atoms

 Group   1 Type Cu  : 17s11p7d1f contracted to 6s4p4d1f pattern {842111/6311/4111/1}
 Group   2 Type I   : 11s10p8d2f contracted to 6s5p3d2f pattern {521111/34111/611/11}

Atom   0Cu   basis set group =>   1
Atom   1Cu   basis set group =>   1
Atom   2I    basis set group =>   2
Atom   3I    basis set group =>   2
---------------------------------
AUXILIARY/J BASIS SET INFORMATION
---------------------------------
There are 2 groups of distinct atoms

 Group   1 Type Cu  : 19s5p5d3f3g contracted to 8s5p4d3f3g pattern {121111111/11111/2111/111/111}
 Group   2 Type I   : 11s5p5d3f1g contracted to 8s4p3d2f1g pattern {41111111/2111/311/21/1}

Atom   0Cu   basis set group =>   1
Atom   1Cu   basis set group =>   1
Atom   2I    basis set group =>   2
Atom   3I    basis set group =>   2
-------------------------
ECP PARAMETER INFORMATION
-------------------------

 Group 1, Type I  ECP Def2-ECP (replacing 28 core electrons, lmax=3)

Atom   2I    ECP group =>   1
Atom   3I    ECP group =>   1



           ************************************************************
           *        Program running with 4 parallel MPI-processes     *
           *              working on a common directory               *
           ************************************************************
------------------------------------------------------------------------------
                             ORCA STARTUP CALCULATIONS
                           -- RI-GTO INTEGRALS CHOSEN --
------------------------------------------------------------------------------
------------------------------------------------------------------------------
                   ___                                                        
                  /   \      - P O W E R E D   B Y -                         
                 /     \                                                     
                 |  |  |   _    _      __       _____    __    __             
                 |  |  |  | |  | |    /  \     |  _  \  |  |  /  |          
                  \  \/   | |  | |   /    \    | | | |  |  | /  /          
                 / \  \   | |__| |  /  /\  \   | |_| |  |  |/  /          
                |  |  |   |  __  | /  /__\  \  |    /   |      \           
                |  |  |   | |  | | |   __   |  |    \   |  |\   \          
                \     /   | |  | | |  |  |  |  | |\  \  |  | \   \       
                 \___/    |_|  |_| |__|  |__|  |_| \__\ |__|  \__/        
                                                                              
                      - O R C A' S   B I G   F R I E N D -                    
                                      &                                       
                       - I N T E G R A L  F E E D E R -                       
                                                                              
 v1 FN, 2020, v2 2021, v3 2022-2024                                           
------------------------------------------------------------------------------


----------------------
SHARK INTEGRAL PACKAGE
----------------------

Number of atoms                             ...      4
Number of basis functions                   ...    190
Number of shells                            ...     62
Maximum angular momentum                    ...      3
Integral batch strategy                     ... SHARK/LIBINT Hybrid
RI-J (if used) integral strategy            ... SPLIT-RIJ (Revised 2003 algorithm where possible)
Printlevel                                  ...      1
Contraction scheme used                     ... SEGMENTED contraction
Prescreening option                         ... SCHWARTZ
   Thresh                                   ... 2.500e-11
   Tcut                                     ... 2.500e-12
   Tpresel                                  ... 2.500e-12 
Coulomb Range Separation                    ... NOT USED
Exchange Range Separation                   ... NOT USED
Multipole approximations                    ... NOT USED
Finite Nucleus Model                        ... NOT USED
CABS basis                                  ... NOT available
Auxiliary Coulomb fitting basis             ... AVAILABLE
   # of basis functions in Aux-J            ...    298
   # of shells in Aux-J                     ...     82
   Maximum angular momentum in Aux-J        ...      4
Auxiliary J/K fitting basis                 ... NOT available
Auxiliary Correlation fitting basis         ... NOT available
Auxiliary 'external' fitting basis          ... NOT available

Checking pre-screening integrals            ... done (  0.0 sec) Dimension = 62
   => SHARK Basis and OBASIS are compatible. Storing Pre-screening
Shell pair information
Shell pair cut-off parameter TPreSel        ...   2.5e-12
Total number of shell pairs                 ...      1953
Shell pairs after pre-screening             ...      1722
Total number of primitive shell pairs       ...      9233
Primitive shell pairs kept                  ...      5640
          la=0 lb=0:    236 shell pairs
          la=1 lb=0:    370 shell pairs
          la=1 lb=1:    154 shell pairs
          la=2 lb=0:    306 shell pairs
          la=2 lb=1:    240 shell pairs
          la=2 lb=2:    104 shell pairs
          la=3 lb=0:    116 shell pairs
          la=3 lb=1:     94 shell pairs
          la=3 lb=2:     82 shell pairs
          la=3 lb=3:     20 shell pairs

Checking whether 4 symmetric matrices of dimension 190 fit in memory
:Max Core in MB      =   8000.00
 MB in use           =      5.93
 MB left             =   7994.07
 MB needed           =      0.55
 Data fit in memory  = YES
Calculating RI/J V-Matrix + Cholesky decomp.... done (  0.0 sec)
Calculating Nuclear repulsion               ... done (  0.0 sec) ENN=    851.557239939064 Eh

Diagonalization of the overlap matrix:
Smallest eigenvalue                        ... 4.427e-03
Time for diagonalization                   ...    0.004 sec
Threshold for overlap eigenvalues          ... 1.000e-07
Number of eigenvalues below threshold      ... 0
Time for construction of square roots      ...    0.009 sec
Total time needed                          ...    0.020 sec

-------------------
DFT GRID GENERATION
-------------------

General Integration Accuracy     IntAcc      ... 5.010
Radial Grid Type                 RadialGrid  ... Gauss-Chebyshev
Angular Grid (max. ang.)         AngularGrid ... 5 (Lebedev-434)
Angular grid pruning method      GridPruning ... 3 (G Style)
Weight generation scheme         WeightScheme... Becke
Basis function cutoff            BFCut       ... 1.0000e-11
Integration weight cutoff        WCut        ... 1.0000e-14
Partially contracted basis set               ... off
Rotationally invariant grid construction     ... off
Angular grids for H and He will be reduced by one unit
Total number of grid points                  ...    66086
Total number of batches                      ...     1035
Average number of points per batch           ...       63
Average number of grid points per atom       ...    16522

--------------------
COSX GRID GENERATION
--------------------

GRIDX 1
-------
General Integration Accuracy     IntAcc      ... 3.816
Radial Grid Type                 RadialGrid  ... OptM3 with GC (2021)
Angular Grid (max. ang.)         AngularGrid ... 1 (Lebedev-50)
Angular grid pruning method      GridPruning ... 3 (G Style)
Weight generation scheme         WeightScheme... Becke
Basis function cutoff            BFCut       ... 1.0000e-11
Integration weight cutoff        WCut        ... 1.0000e-14
Partially contracted basis set               ... on
Rotationally invariant grid construction     ... off
Angular grids for H and He will be reduced by one unit
Total number of grid points                  ...    23856
Total number of batches                      ...      189
Average number of points per batch           ...      126
Average number of grid points per atom       ...     5964
UseSFitting                                  ... on

GRIDX 2
-------
General Integration Accuracy     IntAcc      ... 4.020
Radial Grid Type                 RadialGrid  ... OptM3 with GC (2021)
Angular Grid (max. ang.)         AngularGrid ... 2 (Lebedev-110)
Angular grid pruning method      GridPruning ... 3 (G Style)
Weight generation scheme         WeightScheme... Becke
Basis function cutoff            BFCut       ... 1.0000e-11
Integration weight cutoff        WCut        ... 1.0000e-14
Partially contracted basis set               ... on
Rotationally invariant grid construction     ... off
Angular grids for H and He will be reduced by one unit
Total number of grid points                  ...    23856
Total number of batches                      ...      189
Average number of points per batch           ...      126
Average number of grid points per atom       ...     5964
UseSFitting                                  ... on

GRIDX 3
-------
General Integration Accuracy     IntAcc      ... 4.338
Radial Grid Type                 RadialGrid  ... OptM3 with GC (2021)
Angular Grid (max. ang.)         AngularGrid ... 3 (Lebedev-194)
Angular grid pruning method      GridPruning ... 3 (G Style)
Weight generation scheme         WeightScheme... Becke
Basis function cutoff            BFCut       ... 1.0000e-11
Integration weight cutoff        WCut        ... 1.0000e-14
Partially contracted basis set               ... on
Rotationally invariant grid construction     ... off
Angular grids for H and He will be reduced by one unit
Total number of grid points                  ...    23856
Total number of batches                      ...      189
Average number of points per batch           ...      126
Average number of grid points per atom       ...     5964
UseSFitting                                  ... on
Grids setup in   1.2 sec
Initializing property integral containers    ... done (  0.0 sec)

SHARK setup successfully completed in   1.6 seconds

Maximum memory used throughout the entire STARTUP-calculation: 21.5 MB


           ************************************************************
           *        Program running with 4 parallel MPI-processes     *
           *              working on a common directory               *
           ************************************************************
-------------------------------------------------------------------------------
                                 ORCA GUESS
                   Start orbitals & Density for SCF / CASSCF
-------------------------------------------------------------------------------

------------
SCF SETTINGS
------------
Hamiltonian:
 Density Functional     Method          .... DFT(GTOs)
 Exchange Functional    Exchange        .... B88
   X-Alpha parameter    XAlpha          ....  0.666667
   Becke's b parameter  XBeta           ....  0.004200
 Correlation Functional Correlation     .... LYP
 LDA part of GGA corr.  LDAOpt          .... VWN-5
 Gradients option       PostSCFGGA      .... off
 Hybrid DFT is turned on
   Fraction HF Exchange ScalHFX         ....  0.200000
   Scaling of DF-GGA-X  ScalDFX         ....  0.720000
   Scaling of DF-GGA-C  ScalDFC         ....  0.810000
   Scaling of DF-LDA-C  ScalLDAC        ....  1.000000
   Perturbative correction              ....  0.000000
   NL short-range parameter             ....  4.800000
 RI-approximation to the Coulomb term is turned on
   Number of AuxJ basis functions       .... 298
   RIJ-COSX (HFX calculated with COS-X)).... on


General Settings:
 Integral files         IntName         .... cu2i2_rhombic_grid5_sp
 Hartree-Fock type      HFTyp           .... RHF
 Total Charge           Charge          ....    0
 Multiplicity           Mult            ....    1
 Number of Electrons    NEL             ....  108
 Basis Dimension        Dim             ....  190
 Nuclear Repulsion      ENuc            ....    851.5572399391 Eh

Convergence Acceleration:
 AO-DIIS                CNVDIIS         .... on
   Start iteration      DIISMaxIt       ....    12
   Startup error        DIISStart       ....  0.200000
   # of expansion vecs  DIISMaxEq       ....     5
   Bias factor          DIISBfac        ....   1.050
   Max. coefficient     DIISMaxC        ....  10.000
 MO-DIIS                CNVKDIIS        .... off
 Trust-Rad. Augm. Hess. CNVTRAH         .... auto
   Auto Start mean grad. ratio tolernc. ....  1.125000
   Auto Start start iteration           ....    50
   Auto Start num. interpolation iter.  ....    10
   Max. Number of Micro iterations      ....    24
   Max. Number of Macro iterations      .... Maxiter - #DIIS iter
   Number of Davidson start vectors     ....     2
   Converg. threshold    (grad. norm)   ....   1.000e-05
   Grad. Scal. Fac. for Micro threshold ....   0.100
   Minimum threshold for Micro iter.    ....   1.000e-02
   NR start threshold (gradient norm)   ....   1.000e-04
   Initial trust radius                 ....   0.400
   Minimum AH scaling param. (alpha)    ....   1.000
   Maximum AH scaling param. (alpha)    .... 1000.000
   Quad. conv. algorithm                .... NR
   White noise on init. David. guess    .... on
   Maximum white noise                  ....   0.010
   Pseudo random numbers                .... off
   Inactive MOs                         .... canonical
   Orbital update algorithm             .... Taylor
   Preconditioner                       .... Diag
   Full preconditioner red. dimension   ....   250
 SOSCF                 CNVSOSCF           .... on
   Start iteration     SOSCFMaxIt         ....   150
   Startup grad/error  SOSCFStart         ....  0.003300
   Hessian update      SOSCFHessUp        .... L-BFGS
   Autom. constraints  SOSCFAutoConstrain .... off
 Level Shifting         CNVShift        .... on
   Level shift para.    LevelShift      ....    0.2500
   Turn off err/grad.   ShiftErr        ....    0.0010
 Zerner damping         CNVZerner       .... off
 Static damping         CNVDamp         .... on
   Fraction old density DampFac         ....    0.7000
   Max. Damping (<1)    DampMax         ....    0.9800
   Min. Damping (>=0)   DampMin         ....    0.0000
   Turn off err/grad.   DampErr         ....    0.1000

SCF Procedure:
 Maximum # iterations   MaxIter         ....   125
 SCF integral mode      SCFMode         .... Direct
   Integral package                     .... SHARK and LIBINT hybrid scheme
 Reset frequency        DirectResetFreq ....    20
 Integral Threshold     Thresh          ....  2.500e-11 Eh
 Primitive CutOff       TCut            ....  2.500e-12 Eh

Convergence Tolerance:
 Convergence Check Mode ConvCheckMode   .... Total+1el-Energy
 Convergence forced     ConvForced      .... 0
 Energy Change          TolE            ....  1.000e-08 Eh
 1-El. energy change                    ....  1.000e-05 Eh
 Orbital Gradient       TolG            ....  1.000e-05
 Orbital Rotation angle TolX            ....  1.000e-05
 DIIS Error             TolErr          ....  5.000e-07

------------------------------
INITIAL GUESS: MODEL POTENTIAL
------------------------------
Loading Hartree-Fock densities                     ... done
Atomic calculation to generate a density for atom 2 (I  with ECP)
  Multiplicity assumed   :    2
  Atomic configuration   : 1s2 2s2 2p6 3s2 3p6 4s2 3d10 4p6 5s2 4d10 5p5 
  Number of open shells  : 1
  Command: /workspace/orca_6_1_1/orca cu2i2_rhombic_grid5_sp_atom53.inp "" > cu2i2_rhombic_grid5_sp_atom53.out
Returned from the atomic calculation with res=0
Calculating cut-offs                               ... done
Initializing the effective Hamiltonian             ... done
Setting up the integral package (SHARK)            ... done
Starting the Coulomb interaction                   ... done (   0.1 sec)
Making the grid                                    ... done (   0.1 sec)
Mapping shells                                     ... done
Starting the XC term evaluation                    ... done (   0.0 sec)
  promolecular density results
     # of electrons  =    163.999371687
     EX              =   -479.509547877
     EC              =     -8.170540354
     EX+EC           =   -487.680088230
Transforming the Hamiltonian                       ... done (   0.0 sec)
Diagonalizing the Hamiltonian                      ... done (   0.0 sec)
Back transforming the eigenvectors                 ... done (   0.0 sec)
Now organizing SCF variables                       ... done
                      ------------------
                      INITIAL GUESS DONE (   5.0 sec)
                      ------------------
             **** ENERGY FILE WAS UPDATED (cu2i2_rhombic_grid5_sp.en.tmp) ****
Finished Guess after   5.3 sec
Maximum memory used throughout the entire GUESS-calculation: 12.1 MB


           ************************************************************
           *        Program running with 4 parallel MPI-processes     *
           *              working on a common directory               *
           ************************************************************

-------------------------------------------------------------------------------------------
                                      ORCA LEAN-SCF
                              memory conserving SCF solver
-------------------------------------------------------------------------------------------

----------------------------------------D-I-I-S--------------------------------------------
Iteration    Energy (Eh)           Delta-E    RMSDP     MaxDP     DIISErr   Damp  Time(sec)
-------------------------------------------------------------------------------------------
               ***  Starting incremental Fock matrix formation  ***
    1    -3876.3386648275254629     0.00e+00  4.87e-03  8.22e-02  5.82e-01  0.700   1.5
    2    -3876.4022034670579160    -6.35e-02  3.02e-03  4.89e-02  3.94e-01  0.700   1.3
    3    -3876.4317300646553122    -2.95e-02  1.63e-03  2.54e-02  2.67e-01  0.700   1.3
                               ***Turning on AO-DIIS***
    4    -3876.4520126938959947    -2.03e-02  8.10e-04  1.83e-02  1.82e-01  0.700   1.2
    5    -3876.4653887027661767    -1.34e-02  5.50e-04  1.14e-02  1.30e-01  0.700   1.1
    6    -3876.4750757480423999    -9.69e-03  4.72e-04  1.02e-02  9.21e-02  0.700   1.1
    7    -3876.4820212195454587    -6.95e-03  1.24e-03  2.48e-02  6.46e-02  0.000   1.1
    8    -3876.4982079164119568    -1.62e-02  2.40e-04  3.33e-03  4.87e-03  0.000   1.2
                              *** Initializing SOSCF ***
---------------------------------------S-O-S-C-F--------------------------------------
Iteration    Energy (Eh)           Delta-E    RMSDP     MaxDP     MaxGrad    Time(sec)
--------------------------------------------------------------------------------------
    9    -3876.4982616636907551    -5.37e-05  5.80e-05  6.16e-04  3.02e-03     1.1
               *** Restarting incremental Fock matrix formation ***
   10    -3876.4982775689359187    -1.59e-05  6.85e-05  9.78e-04  3.25e-04     1.4
   11    -3876.4982753863641847     2.18e-06  2.79e-05  3.61e-04  5.95e-04     1.1
   12    -3876.4982787862909390    -3.40e-06  4.36e-05  7.62e-04  1.41e-04     1.0
   13    -3876.4982777589702891     1.03e-06  2.70e-05  5.12e-04  2.95e-04     1.0
   14    -3876.4982793188028154    -1.56e-06  6.52e-06  1.24e-04  1.91e-05     1.0
   15    -3876.4982793103881704     8.41e-09  3.45e-06  6.88e-05  1.96e-05     0.8
                 **** Energy Check signals convergence ****

               *****************************************************
               *                     SUCCESS                       *
               *           SCF CONVERGED AFTER  15 CYCLES          *
               *****************************************************

Setting up the final grid:

General Integration Accuracy     IntAcc      ... 5.340
Radial Grid Type                 RadialGrid  ... Gauss-Chebyshev
Angular Grid (max. ang.)         AngularGrid ... 6 (Lebedev-590)
Angular grid pruning method      GridPruning ... 3 (G Style)
Weight generation scheme         WeightScheme... Becke
Basis function cutoff            BFCut       ... 1.0000e-11
Integration weight cutoff        WCut        ... 1.0000e-14
Partially contracted basis set               ... off
Rotationally invariant grid construction     ... off
Angular grids for H and He will be reduced by one unit
Total number of grid points                  ...    99046
Total number of batches                      ...     1549
Average number of points per batch           ...       63
Average number of grid points per atom       ...    24762
Final grid set up in    1.9 sec
Final integration                            ... done (   0.1 sec)
Change in XC energy                          ...    -0.000042464
Integrated number of electrons               ...   107.999997056
Previous integrated no of electrons          ...   108.000005786
Recomputing exchange energy using gridx3       ... done (    1.137 sec)
Old exchange energy                            :    -34.728717711 Eh
New exchange energy                            :    -34.728697450 Eh
Exchange energy change after final integration :      0.000020261 Eh
Total energy after final integration           :  -3876.498301533 Eh
             **** ENERGY FILE WAS UPDATED (cu2i2_rhombic_grid5_sp.en.tmp) ****

----------------
TOTAL SCF ENERGY
----------------

Total Energy       :      -3876.49830153274615 Eh         -105484.88153 eV

Components:
Nuclear Repulsion  :        851.55723993906417 Eh           23172.05054 eV
Electronic Energy  :      -4728.05551926876433 Eh         -128656.93147 eV
One Electron Energy:      -7312.32150807986909 Eh         -198978.38410 eV
Two Electron Energy:       2584.26598881110522 Eh           70321.45263 eV

Virial components:
Potential Energy   :      -7379.83487136329040 Eh         -200815.51611 eV
Kinetic Energy     :       3503.33656983054425 Eh           95330.63458 eV
Virial Ratio       :          2.10651609523211

DFT components:
N(Alpha)           :       53.999998527886 electrons
N(Beta)            :       53.999998527886 electrons
N(Total)           :      107.999997055773 electrons
E(X)               :     -138.580915219656 Eh       
E(C)               :       -5.537043708611 Eh       
E(XC)              :     -144.117958928267 Eh       

---------------
SCF CONVERGENCE
---------------

  Last Energy change         ...   -8.4146e-09  Tolerance :   1.0000e-08
  Last MAX-Density change    ...    6.8787e-05  Tolerance :   1.0000e-07
  Last RMS-Density change    ...    3.4495e-06  Tolerance :   5.0000e-09
  Last DIIS Error            ...    3.0201e-03  Tolerance :   5.0000e-07
  Last Orbital Gradient      ...    1.9598e-05  Tolerance :   1.0000e-05
  Last Orbital Rotation      ...    2.6332e-05  Tolerance :   1.0000e-05


----------------
ORBITAL ENERGIES
----------------

  NO   OCC          E(Eh)            E(eV) 
   0   2.0000    -323.027037     -8790.0126 
   1   2.0000    -323.027031     -8790.0124 
   2   2.0000     -38.818771     -1056.3125 
   3   2.0000     -38.818735     -1056.3115 
   4   2.0000     -34.023450      -925.8251 
   5   2.0000     -34.023448      -925.8251 
   6   2.0000     -34.023361      -925.8227 
   7   2.0000     -34.023354      -925.8225 
   8   2.0000     -34.023044      -925.8141 
   9   2.0000     -34.023040      -925.8140 
  10   2.0000      -6.836889      -186.0412 
  11   2.0000      -6.836885      -186.0411 
  12   2.0000      -4.855193      -132.1165 
  13   2.0000      -4.855192      -132.1165 
  14   2.0000      -4.854133      -132.0877 
  15   2.0000      -4.854132      -132.0877 
  16   2.0000      -4.850918      -132.0002 
  17   2.0000      -4.850917      -132.0002 
  18   2.0000      -4.310884      -117.3051 
  19   2.0000      -4.310701      -117.3001 
  20   2.0000      -2.806964       -76.3814 
  21   2.0000      -2.805329       -76.3369 
  22   2.0000      -2.805176       -76.3327 
  23   2.0000      -2.805048       -76.3292 
  24   2.0000      -2.803741       -76.2937 
  25   2.0000      -2.803592       -76.2896 
  26   2.0000      -1.904576       -51.8262 
  27   2.0000      -1.904573       -51.8261 
  28   2.0000      -1.904171       -51.8151 
  29   2.0000      -1.904164       -51.8149 
  30   2.0000      -1.901413       -51.7401 
  31   2.0000      -1.901408       -51.7399 
  32   2.0000      -1.900316       -51.7102 
  33   2.0000      -1.900313       -51.7101 
  34   2.0000      -1.899699       -51.6934 
  35   2.0000      -1.899698       -51.6934 
  36   2.0000      -0.689975       -18.7752 
  37   2.0000      -0.684497       -18.6261 
  38   2.0000      -0.361492        -9.8367 
  39   2.0000      -0.349999        -9.5239 
  40   2.0000      -0.337795        -9.1919 
  41   2.0000      -0.319566        -8.6958 
  42   2.0000      -0.318580        -8.6690 
  43   2.0000      -0.318210        -8.6589 
  44   2.0000      -0.298255        -8.1159 
  45   2.0000      -0.297469        -8.0945 
  46   2.0000      -0.292722        -7.9654 
  47   2.0000      -0.290139        -7.8951 
  48   2.0000      -0.289043        -7.8652 
  49   2.0000      -0.283099        -7.7035 
  50   2.0000      -0.269171        -7.3245 
  51   2.0000      -0.252335        -6.8664 
  52   2.0000      -0.248817        -6.7706 
  53   2.0000      -0.247398        -6.7320 
  54   0.0000      -0.077682        -2.1138 
  55   0.0000      -0.071328        -1.9409 
  56   0.0000       0.024332         0.6621 
  57   0.0000       0.026353         0.7171 
  58   0.0000       0.046891         1.2760 
  59   0.0000       0.073910         2.0112 
  60   0.0000       0.080842         2.1998 
  61   0.0000       0.091588         2.4922 
  62   0.0000       0.107357         2.9213 
  63   0.0000       0.131318         3.5733 
  64   0.0000       0.143061         3.8929 
*Only the first 10 virtual orbitals were printed.

                    ********************************
                    * MULLIKEN POPULATION ANALYSIS *
                    ********************************

-----------------------
MULLIKEN ATOMIC CHARGES
-----------------------
   0 Cu:    0.222498
   1 Cu:    0.222497
   2 I :   -0.222497
   3 I :   -0.222497
Sum of atomic charges:   -0.0000000

--------------------------------
MULLIKEN REDUCED ORBITAL CHARGES
--------------------------------
  0 Cus       :     6.544635  s :     6.544635
      pz      :     4.044490  p :    12.304435
      px      :     4.062318
      py      :     4.197627
      dz2     :     1.985272  d :     9.928384
      dxz     :     1.992875
      dyz     :     1.997210
      dx2y2   :     1.956665
      dxy     :     1.996363
      f0      :     0.000005  f :     0.000047
      f+1     :     0.000005
      f-1     :     0.000007
      f+2     :     0.000003
      f-2     :     0.000004
      f+3     :     0.000011
      f-3     :     0.000012

  1 Cus       :     6.544636  s :     6.544636
      pz      :     4.044490  p :    12.304436
      px      :     4.062318
      py      :     4.197627
      dz2     :     1.985272  d :     9.928384
      dxz     :     1.992875
      dyz     :     1.997210
      dx2y2   :     1.956664
      dxy     :     1.996363
      f0      :     0.000005  f :     0.000047
      f+1     :     0.000005
      f-1     :     0.000007
      f+2     :     0.000003
      f-2     :     0.000004
      f+3     :     0.000011
      f-3     :     0.000012

  2 I s       :     3.942752  s :     3.942752
      pz      :     3.949694  p :    11.233034
      px      :     3.723104
      py      :     3.560236
      dz2     :     2.003188  d :    10.039468
      dxz     :     2.003024
      dyz     :     2.010475
      dx2y2   :     2.013548
      dxy     :     2.009232
      f0      :     0.000847  f :     0.007243
      f+1     :     0.000419
      f-1     :     0.001115
      f+2     :     0.000539
      f-2     :     0.000833
      f+3     :     0.001593
      f-3     :     0.001895

  3 I s       :     3.942752  s :     3.942752
      pz      :     3.949694  p :    11.233034
      px      :     3.723104
      py      :     3.560236
      dz2     :     2.003188  d :    10.039468
      dxz     :     2.003024
      dyz     :     2.010475
      dx2y2   :     2.013548
      dxy     :     2.009232
      f0      :     0.000847  f :     0.007243
      f+1     :     0.000419
      f-1     :     0.001115
      f+2     :     0.000539
      f-2     :     0.000833
      f+3     :     0.001593
      f-3     :     0.001895



                     *******************************
                     * LOEWDIN POPULATION ANALYSIS *
                     *******************************

----------------------
LOEWDIN ATOMIC CHARGES
----------------------
   0 Cu:   -0.285721
   1 Cu:   -0.285724
   2 I :    0.285722
   3 I :    0.285723

-------------------------------
LOEWDIN REDUCED ORBITAL CHARGES
-------------------------------
  0 Cus       :     6.448976  s :     6.448976
      pz      :     4.048099  p :    12.424367
      px      :     4.093416
      py      :     4.282852
      dz2     :     2.033643  d :    10.412303
      dxz     :     2.020041
      dyz     :     2.092333
      dx2y2   :     2.133795
      dxy     :     2.132490
      f0      :     0.000006  f :     0.000076
      f+1     :     0.000007
      f-1     :     0.000012
      f+2     :     0.000005
      f-2     :     0.000006
      f+3     :     0.000023
      f-3     :     0.000016

  1 Cus       :     6.448977  s :     6.448977
      pz      :     4.048099  p :    12.424368
      px      :     4.093417
      py      :     4.282853
      dz2     :     2.033643  d :    10.412304
      dxz     :     2.020041
      dyz     :     2.092333
      dx2y2   :     2.133796
      dxy     :     2.132490
      f0      :     0.000006  f :     0.000076
      f+1     :     0.000007
      f-1     :     0.000012
      f+2     :     0.000005
      f-2     :     0.000006
      f+3     :     0.000023
      f-3     :     0.000016

  2 I s       :     3.624534  s :     3.624534
      pz      :     3.816840  p :    11.000543
      px      :     3.633161
      py      :     3.550541
      dz2     :     2.008780  d :    10.076253
      dxz     :     2.004554
      dyz     :     2.014653
      dx2y2   :     2.029736
      dxy     :     2.018530
      f0      :     0.001283  f :     0.012948
      f+1     :     0.000680
      f-1     :     0.001845
      f+2     :     0.000744
      f-2     :     0.001436
      f+3     :     0.003740
      f-3     :     0.003221

  3 I s       :     3.624533  s :     3.624533
      pz      :     3.816840  p :    11.000542
      px      :     3.633161
      py      :     3.550541
      dz2     :     2.008780  d :    10.076253
      dxz     :     2.004554
      dyz     :     2.014653
      dx2y2   :     2.029736
      dxy     :     2.018530
      f0      :     0.001283  f :     0.012948
      f+1     :     0.000680
      f-1     :     0.001845
      f+2     :     0.000744
      f-2     :     0.001436
      f+3     :     0.003740
      f-3     :     0.003221



                      *****************************
                      * MAYER POPULATION ANALYSIS *
                      *****************************

  NA   - Mulliken gross atomic population
  ZA   - Total nuclear charge
  QA   - Mulliken gross atomic charge
  VA   - Mayer's total valence
  BVA  - Mayer's bonded valence
  FA   - Mayer's free valence

  ATOM       NA         ZA         QA         VA         BVA        FA
  0 Cu    28.7775    29.0000     0.2225     1.4700     1.4700    -0.0000
  1 Cu    28.7775    29.0000     0.2225     1.4700     1.4700    -0.0000
  2 I     25.2225    25.0000    -0.2225     1.3575     1.3575     0.0000
  3 I     25.2225    25.0000    -0.2225     1.3575     1.3575    -0.0000

  Mayer bond orders larger than 0.100000
B(  0-Cu,  1-Cu) :   0.1575 B(  0-Cu,  2-I ) :   0.6562 B(  0-Cu,  3-I ) :   0.6562 
B(  1-Cu,  2-I ) :   0.6562 B(  1-Cu,  3-I ) :   0.6562 

-------
TIMINGS
-------

Total SCF time: 0 days 0 hours 0 min 21 sec 

Total time                  ....      21.654 sec
Sum of individual times     ....      20.762 sec  ( 95.9%)

SCF preparation             ....       0.433 sec  (  2.0%)
Fock matrix formation       ....      17.248 sec  ( 79.7%)
  Startup                   ....       0.063 sec  (  0.4% of F)
  Split-RI-J                ....       1.015 sec  (  5.9% of F)
  Chain of spheres X        ....      14.110 sec  ( 81.8% of F)
  XC integration            ....       2.013 sec  ( 11.7% of F)
    XC Preparation          ....       0.000 sec  (  0.0% of XC)
    Basis function eval.    ....       0.508 sec  ( 25.3% of XC)
    Density eval.           ....       0.392 sec  ( 19.5% of XC)
    XC-Functional eval.     ....       0.098 sec  (  4.9% of XC)
    XC-Potential eval.      ....       0.455 sec  ( 22.6% of XC)
Diagonalization             ....       0.000 sec  (  0.0%)
Density matrix formation    ....       0.292 sec  (  1.3%)
Total Energy calculation    ....       0.078 sec  (  0.4%)
Population analysis         ....       0.034 sec  (  0.2%)
Orbital Transformation      ....       0.054 sec  (  0.2%)
Orbital Orthonormalization  ....       0.000 sec  (  0.0%)
DIIS solution               ....       0.410 sec  (  1.9%)
SOSCF solution              ....       0.284 sec  (  1.3%)
Grid generation             ....       1.929 sec  (  8.9%)
Finished LeanSCF after  21.7 sec

Maximum memory used throughout the entire LEANSCF-calculation: 28.1 MB


-------------------------------------------------------------------------------
                          DFT DISPERSION CORRECTION                            
                                                                               
                              DFTD3 V3.1  Rev 1                                
                          USING Becke-Johnson damping                          
-------------------------------------------------------------------------------
The B3LYP functional is recognized
Active option DFTDOPT                   ...         4   

molecular C6(AA) [au] = 4100.733251 


            DFT-D V3
 parameters
 s6 scaling factor         :     1.0000 
 a1 scaling factor         :     0.3981 
 s8 scaling factor         :     1.9889 
 a2 scaling factor         :     4.4211 
 ad hoc parameters k1-k3   :    16.0000     1.3333    -4.0000 

 Edisp/kcal,au: -10.132459004069  -0.016147099513 
 E6   /kcal   :  -2.766855814 
 E8   /kcal   :  -7.365603190 
 % E8         :  72.693145735 

-------------------------   ----------------
Dispersion correction           -0.016147100
-------------------------   ----------------


-------------------------   --------------------
FINAL SINGLE POINT ENERGY     -3876.514448632259
-------------------------   --------------------



           ************************************************************
           *        Program running with 4 parallel MPI-processes     *
           *              working on a common directory               *
           ************************************************************

------------------------------------------------------------------------------
                              ORCA PROPERTY CALCULATIONS
------------------------------------------------------------------------------

GBWName                                 ... cu2i2_rhombic_grid5_sp.gbw
Number of atoms                         ...      4
Number of basis functions               ...    190
Max core memory                         ...   8000 MB

Electric properties:
Dipole moment                           ... YES
Quadrupole moment                       ...  NO
Static polarizability (Dipole/Dipole)   ...  NO
Static polarizability (Dipole/Quad.)    ...  NO
Static polarizability (Quad./Quad.)     ...  NO
Static polarizability (Velocity)        ...  NO
Static hyperpolarizability              ...  NO

Atomic electric properties:
Dipole moment                           ...  NO
Quadrupole moment                       ...  NO
Static polarizability                   ...  NO

Choice of electric origin               ... Center of mass
Position of electric origin             ...     0.000001     0.000001     0.000000

General magnetic properties:
Magnetizability                         ...  NO

EPR properties:
g-Tensor (aka g-matrix)                 ...  NO
Zero-Field splitting spin-orbit         ...  NO
Zero-field splitting spin-spin          ...  NO
Hyperfine couplings                     ...  NO (   0 nuclei)
Quadrupole couplings                    ...  NO (   0 nuclei)
Contact density                         ...  NO (   0 nuclei)

NMR properties:
Chemical shifts                         ...  NO (   0 nuclei)
Spin-rotation constants                 ...  NO (   0 nuclei)
Spin-spin couplings                     ...  NO (   0 nuclei,    0 pairs)

Choice of magnetic origin               ... GIAO
Position of magnetic origin             ...     0.000000     0.000000     0.000000

Properties with geometric perturbations:
SCF Hessian                             ...  NO
IR spectrum                             ...  NO
VCD spectrum                            ...  NO
X-ray spectroscopy properties:
SCF XES/XAS/RIXS spectra                ...  NO

SCF SOC stabilization energy            ...  NO
Diagonal Born-Oppenheimer correction    ...  NO

-------------
DIPOLE MOMENT
-------------

Method             : SCF
Type of density    : Electron Density
Multiplicity       :   1
Irrep              :   0
Energy             : -3876.4983015327461544 Eh
Basis              : AO
                                X                 Y                 Z
Electronic contribution:      0.000079339       0.000019342       0.000000052
Nuclear contribution   :     -0.000083005      -0.000020751       0.000000000
                        -----------------------------------------
Total Dipole Moment    :     -0.000003666      -0.000001409       0.000000052
                        -----------------------------------------
Magnitude (a.u.)       :      0.000003928
Magnitude (Debye)      :      0.000009985



--------------------
Rotational spectrum 
--------------------
 
Rotational constants in cm-1:             0.087259             0.013092             0.011384 
Rotational constants in MHz :          2615.966477           392.494877           341.288559 

Dipole components along the rotational axes: 
x,y,z [a.u.] :     0.000001     0.000004     0.000000 
x,y,z [Debye]:     0.000004     0.000009     0.000000 

 

Dipole moment calculation done in   0.0 sec 

Maximum memory used throughout the entire PROP-calculation: 9.2 MB

--------------------------------
SUGGESTED CITATIONS FOR THIS RUN
--------------------------------

Below you find a list of papers that are relevant to this ORCA run
We neither can nor want to force you to cite these papers, but we appreciate if you do
You receive ORCA, which is the product of decades of hard work by many enthusiastic individuals, for free
The only thing we kindly ask in return is that you cite our papers,
We deeply appreciate it, if you show your appreciation for ORCA by not just citing the generic ORCA reference.

Please note that relegating all ORCA citations to the supporting information does *not* help us.
SI sections are not indexed - citations you put there will not count into any citation statistics
But we need these citations in order to attract the funding resources that allow us to do what we are doing

Therefore, if you are a happy ORCA user, please consider citing a few of the papers listed below in the main body of your paper

In addition to the list printed below, the program has created the file cu2i2_rhombic_grid5_sp.bibtex that contains the list in bibtex format
You can import this file easily into all common literature databanks and citation aid programs

It goes without saying that in many instances, there are alternative algorithms to achieve similar
results as the ones you have gotten from ORCA. It is, of course, also the case that in some instances
ORCA just re-implements algorithms worked out by others. We are fully aware of that and we are also
fully appreciative of our colleagues work. Hence this citation list should not be read as indicating
that the listed papers, which are focused on our own work, are the only ones worth citing. It simply
meant to make it easier for users to cite ORCA specific papers. It is not a substitute for doing your
own literature research and citing the relevant literature in a scientifically appropriate manner.

List of essential papers. We consider these as the minimum necessary citations

  1. Neese, F.
     Software update: the ORCA program system, version 6.0
     WIRES Comput. Molec. Sci. 2025 15(1), e70019
     doi.org/10.1002/wcms.70019

List of papers to cite with high priority. The work reported in these papers was absolutely
necessary for this run to complete.
Our perspective: the developers of density functionals and basis sets usually get cited in chemistry papers
Good! But without the algorithms to do something with them, the functionals or basis sets would not do anything.
Hence, in our opinion, the algorithm design and method developments papers are equally worthy of getting cited

  1. Neese, F.
     An improvement of the resolution of the identity approximation for the formation of the Coulomb matrix
     J. Comp. Chem. 2003 24(14), 1740-1747
     doi.org/10.1002/jcc.10318
  2. Neese, F.; Wennmohs, F.; Hansen, A.; Becker, U.
     Efficient, approximate and parallel Hartree-Fock and hybrid DFT calculations. A 'chain-of-spheres' algorithm for the Hartree-Fock exchange
     Chem. Phys. 2009 356(1-3), 98-109
     doi.org/10.1016/j.chemphys.2008.10.036
  3. Grimme, S.; Antony, J.; Ehrlich, S.; Krieg, H.
     A consistent and accurate ab initio parametrization of density functional dispersion correction (DFT-D) for the 94 elements H-Pu
     J. Chem. Phys. 2010 132 , 154104
     doi.org/10.1063/1.3382344
  4. Grimme, S.; Ehrlich, S.; Goerigk, L.
     Effect of the damping function in dispersion corrected density functional theory
     J. Comput. Chem. 2011 32(7), 1456-1465
     doi.org/10.1002/jcc.21759
  5. Helmich-Paris, B.; de Souza, B.; Neese, F.; Izsák, R.
     An improved chain of spheres for exchange algorithm
     J. Chem. Phys. 2021 155(10), 104109
     doi.org/10.1063/5.0058766
  6. Neese, F.
     The SHARK Integral Generation and Digestion System
     J. Comp. Chem. 2022 44(3), 381
     doi.org/10.1002/jcc.26942

List of suggested additional citations. These are papers that are important in the 'surrounding' of 
of this run, or papers that preceded the highly important papers. If you like your results we are grateful for a citation.

  1. Izsak, R.; Neese, F.
     An overlap fitted chain of spheres exchange method
     J. Chem. Phys. 2011 135 , 144105
     doi.org/10.1063/1.3646921
  2. Izsak, R.; Hansen, A.; Neese, F.
     The resolution of identity and chain of spheres approximations for the LPNO-CCSD singles Fock term
     Molec. Phys. 2012 110 , 2413-2417
     doi.org/10.1080/00268976.2012.687466
  3. Neese, F.
     The ORCA program system
     WIRES Comput. Molec. Sci. 2012 2(1), 73-78
     doi.org/10.1002/wcms.81
  4. Izsak, R.; Neese, F.; Klopper, W.
     Robust fitting techniques in the chain of spheres approximation to the Fock exchange: The role of the complementary space
     J. Chem. Phys. 2013 139 , 
     doi.org/10.1063/1.4819264
  5. Neese, F.
     Software update: the ORCA program system, version 4.0
     WIRES Comput. Molec. Sci. 2018 8(1), 1-6
     doi.org/10.1002/wcms.1327
  6. Neese, F.; Wennmohs, F.; Becker, U.; Riplinger, C.
     The ORCA quantum chemistry program package
     J. Chem. Phys. 2020 152(22), 224108
     doi.org/10.1063/5.0004608
  7. Neese, F.
     Software update: The ORCA program system—Version 5.0
     WIRES Comput. Molec. Sci. 2022 12(1), e1606
     doi.org/10.1002/wcms.1606

List of optional additional citations

  1. Neese, F.
     Approximate second-order SCF convergence for spin unrestricted wavefunctions
     Chem. Phys. Lett. 2000 325(1-3), 93-98
     doi.org/10.1016/s0009-2614(00)00662-x

Timings for individual modules:

Sum of individual times          ...       30.464 sec (=   0.508 min)
Startup calculation              ...        2.165 sec (=   0.036 min)   7.1 %
SCF iterations                   ...       27.654 sec (=   0.461 min)  90.8 %
Property calculations            ...        0.645 sec (=   0.011 min)   2.1 %
                             ****ORCA TERMINATED NORMALLY****
TOTAL RUN TIME: 0 days 0 hours 0 minutes 31 seconds 625 msec
