
                                 *****************
                                 * O   R   C   A *
                                 *****************

                                            #,                                       
                                            ###                                      
                                            ####                                     
                                            #####                                    
                                            ######                                   
                                           ########,                                 
                                     ,,################,,,,,                         
                               ,,#################################,,                 
                          ,,##########################################,,             
                       ,#########################################, ''#####,          
                    ,#############################################,,   '####,        
                  ,##################################################,,,,####,       
                ,###########''''           ''''###############################       
              ,#####''   ,,,,##########,,,,          '''####'''          '####       
            ,##' ,,,,###########################,,,                        '##       
           ' ,,###''''                  '''############,,,                           
         ,,##''                                '''############,,,,        ,,,,,,###''
      ,#''                                            '''#######################'''  
     '                                                          ''''####''''         
             ,#######,   #######,   ,#######,      ##                                
            ,#'     '#,  ##    ##  ,#'     '#,    #''#        ,####,    ,#,          
            ##       ##  ##   ,#'  ##            #'  '#       #'       ,# #          
            ##       ##  #######   ##           ,######,      #####,      #          
            '#,     ,#'  ##    ##  '#,     ,#' ,#      #,     #,   #      #          
             '#######'   ##     ##  '#######'  #'      '#     '####' #    #          



                #########################################################
                #                        -***-                          #
                #          Department of theory and spectroscopy        #
                #                                                       #
                #                      Frank Neese                      #
                #                                                       #
                #     Directorship, Architecture, Infrastructure        #
                #                    SHARK, DRIVERS                     #
                #        Core code/Algorithms in most modules           #
                #                                                       #
                #        Max Planck Institute fuer Kohlenforschung      #
                #                Kaiser Wilhelm Platz 1                 #
                #                 D-45470 Muelheim/Ruhr                 #
                #                      Germany                          #
                #                                                       #
                #                  All rights reserved                  #
                #                        -***-                          #
                #########################################################


                         Program Version 6.1.1  -  RELEASE   -
                                (GIT: $487d211c$)
                          ($2025-11-21 10:33:24 +0100$)


 With contributions from (in alphabetic order):
[Max-Planck-Institut fuer Kohlenforschung]                               
  Daniel Aravena         : Magnetic Suceptibility                        
  Michael Atanasov       : Ab Initio Ligand Field Theory (pilot matlab implementation)
  Alexander A. Auer      : GIAO ZORA, VPT2 properties, NMR spectrum      
  Ute Becker             : All parallelization in ORCA, NUMFREQ, NUMCALC 
  Giovanni Bistoni       : ED, misc. LED, open-shell LED, HFLD           
  Dmytro Bykov           : pre 5.0 version of the SCF Hessian            
  Marcos Casanova-Páez   : Triplet and SCS-CIS(D). UHF-(DLPNO)-IP/EA/STEOM-CCSD. UHF-CVS-IP/STEOM-CCSD   
  Vijay G. Chilkuri      : MRCI spin determinant printing, contributions to CSF-ICE 
  Pauline Colinet        : FMM embedding                                 
  Dipayan Datta          : RHF DLPNO-CCSD density                        
  Achintya Kumar Dutta   : EOM-CC, STEOM-CC                              
  Nicolas Foglia         : Exact transition moments, OPA infrastructure, MCD improvements    
  Dmitry Ganyushin       : Spin-Orbit,Spin-Spin,Magnetic field MRCI      
  Miquel Garcia-Rates    : C-PCM and meta-GGA Hessian, CCSD/C-PCM, Gaussian charge scheme 
  Tiago L. C. Gouveia    : GS-ROHF, GS-ROCIS                             
  Yang Guo               : DLPNO-NEVPT2, F12-NEVPT2, CIM, IAO-localization        
  Andreas Hansen         : Spin unrestricted coupled pair/coupled cluster methods 
  Ingolf Harden          : AUTO-CI MPn and infrastructure                
  Benjamin Helmich-Paris : MC-RPA, TRAH-(SCF,CASSCF), AVAS, COSX integrals, SCF dyn. polar., MC-PDFT, srDFT 
  Lee Huntington         : MR-EOM, pCC                                   
  Robert Izsak           : Overlap fitted RIJCOSX, COSX-SCS-MP3, EOM     
  Riya Kayal             : Wick's Theorem for AUTO-CI, AUTO-CI UHF-CCSDT 
  Emily Kempfer          : AUTO-CI RHF CISDT and CCSDT, approximate NEVPT4
  Christian Kollmar      : KDIIS, OOCD, Brueckner-CCSD(T), CCSD density, CASPT2, CASPT2-K, improved NEVPT2 
  Axel Koslowski         : Symmetry handling                             
  Simone Kossmann        : meta-GGA functionals, TD-DFT gradient, OOMP2, (MP2 Hessian; deprecated post 5.0) 
  Lucas Lang             : DCDCAS, Hyperfine gauge corrections, ICE-SOC+SSC
  Marvin Lechner         : AUTO-CI (C++ implementation), FIC-MRCC        
  Spencer Leger          : CASSCF response                               
  Dagmar Lenk            : GEPOL surface, SMD, ORCA-2-JSON               
  Dimitrios Liakos       : Extrapolation schemes; Compound Job, Property file
  Dimitrios Manganas     : Further ROCIS development; embedding schemes. LFT, Crystal Embedding 
  Dimitrios Pantazis     : SARC Basis sets                               
  Anastasios Papadopoulos: AUTO-CI, single reference methods and gradients 
  Taras Petrenko         : pre 6.0 DFT Hessian and TD-DFT gradient,  ECA, NRVS 
  Petra Pikulova         : Analytic Raman intensities                    
  Peter Pinski           : DLPNO-MP2, DLPNO-MP2 Gradient                 
  Shashank Vittal Rao    : ES-AILFT, MagRelax                            
  Christoph Reimann      : Effective Core Potentials                     
  Marius Retegan         : Local ZFS, SOC                                
  Christoph Riplinger    : Optimizer, TS searches, QM/MM, DLPNO-CCSD(T), (RO)-DLPNO pert. Triples 
  Michael Roemelt        : Original ROCIS implementation, recursive CI coupling coefficients
  Masaaki Saitow         : Open-shell DLPNO-CCSD energy and density      
  Barbara Sandhoefer     : DKH picture change effects                    
  Yorick L. A. Schmerwitz: GMF and freeze-and-release deltaSCF, NEB S-IDPP initial path                    
  Kantharuban Sivalingam : CASSCF convergence/infrastructure, NEVPT2, NEVPT3, NEVPT4(SD), FIC-MRCI and CEPA variants
  Bernardo de Souza      : ESD, SOC TD-DFT                               
  Georgi L. Stoychev     : AutoAux, RI-MP2 NMR, DLPNO-MP2 response, X2C  
  Van Anh Tran           : RI-MP2 g-tensors                              
  Willem Van den Heuvel  : Paramagnetic NMR                              
  Zikuan Wang            : NOTCH, Electric field optimization            
  Frank Wennmohs         : Technical directorship and infrastructure     
  Hang Xu                : AUTO-CI-Response properties                   
                                                                         
[FACCTs GmbH]                                                            
  Markus Bursch, Nicolas Foglia, Miquel Garcia-Rates, Ingolf Harden, Hagen Neugebauer, Anastasios Papadopoulos, 
  Christoph Riplinger, Bernardo de Souza, Georgi L. Stoychev                                                    
                                                                 
  APM, various basis sets, CI-OPT, improved COSX, DLPNO-Multilevel,           
  DOCKER, DRACO, updates on ESD, Fragmentator, GOAT, IRC, LR-CPCM, L-BFGS, MBIS, meta-GGA TD-DFT gradient, ML-optimized integration grids, 
  MM, NACMEs, nearIR, NEB, NEB-TS, NL-DFT gradient (VV10), 2- and 3-layer-ONIOM, interface openCOSMO-RS, QMMM,   
  Crystal-QMMM, RESP, rigid body optimization, SF, symmetry and pop. for TD-DFT, various functionals, SOLVATOR                                   
                                                                         
[Other institutions]                                                     
  V. Asgeirsson          : NEB                                           
  Christoph Bannwarth    : sTDA-DFT, sTD-DFT, PBEh-3c, B97-3c, D3        
  Giovanni Bistoni       : ETS/NOCV, ADLD/ADEX, COVALED                  
  Martin Brehm           : Molecular dynamics                            
  Ronald Cardenas        : ETS/NOCV                                      
  Martina Colucci        : COVALED                                       
  Sebastian Ehlert       : rSCAN, r2SCAN, r2SCAN-3c, D4, dhf basis sets  
  Marvin Friede          : D4 for Fr, Ra, Ac-Lr                          
  Lars Goerigk           : TD-DFT with DH, B97 family of functionals     
  Stefan Grimme          : VdW corrections, initial TS optimization, DFT functionals, gCP, sTDA/sTD-DF 
  Waldemar Hujo          : DFT-NL                                        
  H. Jonsson             : NEB                                           
  Holger Kruse           : gCP                                           
  Marcel Mueller         : wB97X-3c, vDZP basis set                      
  Hagen Neugebauer       : wr2SCAN, Native XTB                           
  Gianluca Regni         : ADLD/ADEX                                     
  Tobias Risthaus        : pre 6.0 range-separated hybrid DFT and stability analysis
  Lukas Wittmann         : regularized MP2, r2SCAN double-hybrids, wr2SCAN        
                                                                         
We gratefully acknowledge several colleagues who have allowed us to      
interface, adapt or use parts of their codes:                            
  Ed Valeev, F. Pavosevic, A. Kumar             : LibInt (2-el integral package), F12 methods 
  Garnet Chan, S. Sharma, J. Yang, R. Olivares  : DMRG                   
  Ulf Ekstrom                                   : XCFun DFT Library      
  Mihaly Kallay                                 : mrcc  (arbitrary order and MRCC methods)
  Frank Weinhold                                : gennbo (NPA and NBO analysis)           
  Simon Mueller                                 : openCOSMO-RS                            
  Christopher J. Cramer and Donald G. Truhlar   : smd solvation model                     
  S Lehtola, MJT Oliveira, MAL Marques          : LibXC Library                           
  Liviu Ungur et al                             : ANISO software                          


 Your calculation uses the libint2 library for the computation of 2-el integrals
 For citations please refer to: http://libint.valeyev.net

 Your ORCA version has been built with support for libXC version: 7.0.0
 For citations please refer to: https://libxc.gitlab.io

 This ORCA versions uses:
   CBLAS   interface :  Fast vector & matrix operations
   LAPACKE interface :  Fast linear algebra routines
   SCALAPACK package :  Parallel linear algebra routines
   Shared memory     :  Shared parallel matrices
   BLAS/LAPACK       :  OpenBLAS 0.3.29  USE64BITINT DYNAMIC_ARCH NO_AFFINITY Zen SINGLE_THREADED
        Core in use  :  Zen
   Copyright (c) 2011-2014, The OpenBLAS Project


  ***********************************
  * Starting time: Thu Apr 30 15:57:48 2026
  * Host name:     e46e9c79961b
  * Process ID:    1607
  * Working dir.:  /workspace/orca_calc_grid5_v9/calc
  ***********************************

NOTE: MaxCore=8000 MB was set to SCF,MP2,MDCI,CIPSI,MRCI,RASCI and CIS
      => If you want to overwrite this, your respective input block should be placed after the MaxCore statement
Your calculation utilizes the atom-pairwise dispersion correction
with the Becke-Johnson damping scheme (D3BJ)


Your calculation utilizes the SMD solvation module
Please cite in your paper:
Marenich, A. V.; Cramer, C. J.; Truhlar, D. G. J. Phys. Chem. B 2009, 113, 6378 

================================================================================

cite the ECPs for I  [Def2-ECP] as follows:
Ce-Yb(ecp-28): M. Dolg, H. Stoll, H.Preuss, J. Chem. Phys., 1989, 90, 1730-1734.
Y-Cd(ecp-28), Hf-Hg(ecp-46): D. Andrae,U. Haeussermann, M. Dolg, H. Stoll, H. Preuss, Theor. Chim. Acta, 1990, 77, 123-141.
In-Sb(ecp-28), Tl-Bi(ecp-46): B. Metz, H. Stoll, M. Dolg, J. Chem. Phys., 2000, 113, 2563-2569.
Te-Xe(ecp-28), Po-Rn(ecp-46): K. A. Peterson, D. Figgen, E. Goll, H. Stoll, M. Dolg, J. Chem. Phys., 2003, 119, 11113-11123.
Rb(ecp-28), Cs(ecp-46): T. Leininger, A. Nicklass, W. Kuechle, H. Stoll, M. Dolg, A. Bergner, Chem. Phys. Lett., 1996, 255, 274-280.
Sr(ecp-28), Ba(ecp-46): M. Kaupp, P. V. Schleyer, H. Stoll and H. Preuss, J. Chem. Phys., 1991, 94, 1360-1366.
La(ecp-46): M. Dolg, H. Stoll, A. Savin, H. Preuss, Theor. Chim. Acta, 1989, 75, 173-194.
Lu(ecp-28): X. Cao, M. Dolg, J. Chem. Phys., 2001, 115, 7348-7355.

ECP parameters for I  [Def2-ECP] have been obtained from:
TURBOMOLE (7.0.2)

----- Orbital basis set information -----
Your calculation utilizes the basis: def2-TZVP
   F. Weigend and R. Ahlrichs, Phys. Chem. Chem. Phys. 7, 3297 (2005).

----- AuxJ basis set information -----
Your calculation utilizes the auxiliary basis: def2/J
   H-Rn: F. Weigend, Phys. Chem. Chem. Phys. 8, 1057 (2006).
   Fr-Lr: K. Eichkorn, F. Weigend, O. Treutler, R. Ahlrichs; Theor. Chem. Acc. 97, 119 (1997).

================================================================================
                                        WARNINGS
                       Please study these warnings very carefully!
================================================================================


================================================================================
                                       INPUT FILE
================================================================================
NAME = cu2i2_rhombic_smd_grid5_sp.inp
|  1> ! B3LYP D3BJ def2-TZVP RIJCOSX def2/J TightSCF SP CPCM(WATER)
|  2> 
|  3> %pal nprocs 4 end
|  4> %maxcore 8000
|  5> 
|  6> %method
|  7>   Grid 5
|  8>   FinalGrid 6
|  9> end
| 10> 
| 11> %cpcm
| 12>   smd true
| 13>   SMDsolvent "Water"
| 14> end
| 15> 
| 16> * xyz 0 1
| 17>   Cu    -1.232878   -0.000000    0.000000
| 18>   Cu     1.232876   -0.000000    0.000000
| 19>   I      0.000001    2.252402   -0.000000
| 20>   I      0.000001   -2.252401   -0.000000
| 21> *
| 22> 
| 23>                          ****END OF INPUT****
================================================================================

                       ****************************
                       * Single Point Calculation *
                       ****************************

---------------------------------
CARTESIAN COORDINATES (ANGSTROEM)
---------------------------------
  Cu    -1.232878   -0.000000    0.000000
  Cu     1.232876   -0.000000    0.000000
  I      0.000001    2.252402   -0.000000
  I      0.000001   -2.252401   -0.000000

----------------------------
CARTESIAN COORDINATES (A.U.)
----------------------------
  NO LB      ZA    FRAG     MASS         X           Y           Z
   0 Cu   29.0000    0    63.550   -2.329802   -0.000000    0.000000
   1 Cu   29.0000    0    63.550    2.329798   -0.000000    0.000000
   2 I    25.0000*   0   126.900    0.000002    4.256423   -0.000000
   3 I    25.0000*   0   126.900    0.000002   -4.256421   -0.000000
* core charge reduced due to ECP

--------------------------------
INTERNAL COORDINATES (ANGSTROEM)
--------------------------------
 Cu     0   0   0     0.000000000000     0.00000000     0.00000000
 Cu     1   0   0     2.465754000000     0.00000000     0.00000000
 I      2   1   0     2.567741329501    61.30546216     0.00000000
 I      2   1   3     2.567740452309    61.30545144   180.00000000

---------------------------
INTERNAL COORDINATES (A.U.)
---------------------------
 Cu     0   0   0     0.000000000000     0.00000000     0.00000000
 Cu     1   0   0     4.659599773621     0.00000000     0.00000000
 I      2   1   0     4.852327895508    61.30546216     0.00000000
 I      2   1   3     4.852326237856    61.30545144   180.00000000

---------------------
BASIS SET INFORMATION
---------------------
There are 2 groups of distinct atoms

 Group   1 Type Cu  : 17s11p7d1f contracted to 6s4p4d1f pattern {842111/6311/4111/1}
 Group   2 Type I   : 11s10p8d2f contracted to 6s5p3d2f pattern {521111/34111/611/11}

Atom   0Cu   basis set group =>   1
Atom   1Cu   basis set group =>   1
Atom   2I    basis set group =>   2
Atom   3I    basis set group =>   2
---------------------------------
AUXILIARY/J BASIS SET INFORMATION
---------------------------------
There are 2 groups of distinct atoms

 Group   1 Type Cu  : 19s5p5d3f3g contracted to 8s5p4d3f3g pattern {121111111/11111/2111/111/111}
 Group   2 Type I   : 11s5p5d3f1g contracted to 8s4p3d2f1g pattern {41111111/2111/311/21/1}

Atom   0Cu   basis set group =>   1
Atom   1Cu   basis set group =>   1
Atom   2I    basis set group =>   2
Atom   3I    basis set group =>   2
-------------------------
ECP PARAMETER INFORMATION
-------------------------

 Group 1, Type I  ECP Def2-ECP (replacing 28 core electrons, lmax=3)

Atom   2I    ECP group =>   1
Atom   3I    ECP group =>   1



           ************************************************************
           *        Program running with 4 parallel MPI-processes     *
           *              working on a common directory               *
           ************************************************************
------------------------------------------------------------------------------
                             ORCA STARTUP CALCULATIONS
                           -- RI-GTO INTEGRALS CHOSEN --
------------------------------------------------------------------------------
------------------------------------------------------------------------------
                   ___                                                        
                  /   \      - P O W E R E D   B Y -                         
                 /     \                                                     
                 |  |  |   _    _      __       _____    __    __             
                 |  |  |  | |  | |    /  \     |  _  \  |  |  /  |          
                  \  \/   | |  | |   /    \    | | | |  |  | /  /          
                 / \  \   | |__| |  /  /\  \   | |_| |  |  |/  /          
                |  |  |   |  __  | /  /__\  \  |    /   |      \           
                |  |  |   | |  | | |   __   |  |    \   |  |\   \          
                \     /   | |  | | |  |  |  |  | |\  \  |  | \   \       
                 \___/    |_|  |_| |__|  |__|  |_| \__\ |__|  \__/        
                                                                              
                      - O R C A' S   B I G   F R I E N D -                    
                                      &                                       
                       - I N T E G R A L  F E E D E R -                       
                                                                              
 v1 FN, 2020, v2 2021, v3 2022-2024                                           
------------------------------------------------------------------------------


----------------------
SHARK INTEGRAL PACKAGE
----------------------

Number of atoms                             ...      4
Number of basis functions                   ...    190
Number of shells                            ...     62
Maximum angular momentum                    ...      3
Integral batch strategy                     ... SHARK/LIBINT Hybrid
RI-J (if used) integral strategy            ... SPLIT-RIJ (Revised 2003 algorithm where possible)
Printlevel                                  ...      1
Contraction scheme used                     ... SEGMENTED contraction
Prescreening option                         ... SCHWARTZ
   Thresh                                   ... 2.500e-11
   Tcut                                     ... 2.500e-12
   Tpresel                                  ... 2.500e-12 
Coulomb Range Separation                    ... NOT USED
Exchange Range Separation                   ... NOT USED
Multipole approximations                    ... NOT USED
Finite Nucleus Model                        ... NOT USED
CABS basis                                  ... NOT available
Auxiliary Coulomb fitting basis             ... AVAILABLE
   # of basis functions in Aux-J            ...    298
   # of shells in Aux-J                     ...     82
   Maximum angular momentum in Aux-J        ...      4
Auxiliary J/K fitting basis                 ... NOT available
Auxiliary Correlation fitting basis         ... NOT available
Auxiliary 'external' fitting basis          ... NOT available

Checking pre-screening integrals            ... done (  0.0 sec) Dimension = 62
   => SHARK Basis and OBASIS are compatible. Storing Pre-screening
Shell pair information
Shell pair cut-off parameter TPreSel        ...   2.5e-12
Total number of shell pairs                 ...      1953
Shell pairs after pre-screening             ...      1722
Total number of primitive shell pairs       ...      9233
Primitive shell pairs kept                  ...      5640
          la=0 lb=0:    236 shell pairs
          la=1 lb=0:    370 shell pairs
          la=1 lb=1:    154 shell pairs
          la=2 lb=0:    306 shell pairs
          la=2 lb=1:    240 shell pairs
          la=2 lb=2:    104 shell pairs
          la=3 lb=0:    116 shell pairs
          la=3 lb=1:     94 shell pairs
          la=3 lb=2:     82 shell pairs
          la=3 lb=3:     20 shell pairs

Checking whether 4 symmetric matrices of dimension 190 fit in memory
:Max Core in MB      =   8000.00
 MB in use           =      5.93
 MB left             =   7994.07
 MB needed           =      0.55
 Data fit in memory  = YES
Calculating RI/J V-Matrix + Cholesky decomp.... done (  0.0 sec)
Calculating Nuclear repulsion               ... done (  0.0 sec) ENN=    851.557239939064 Eh

Diagonalization of the overlap matrix:
Smallest eigenvalue                        ... 4.427e-03
Time for diagonalization                   ...    0.004 sec
Threshold for overlap eigenvalues          ... 1.000e-07
Number of eigenvalues below threshold      ... 0
Time for construction of square roots      ...    0.010 sec
Total time needed                          ...    0.021 sec

-------------------
DFT GRID GENERATION
-------------------

General Integration Accuracy     IntAcc      ... 5.010
Radial Grid Type                 RadialGrid  ... Gauss-Chebyshev
Angular Grid (max. ang.)         AngularGrid ... 5 (Lebedev-434)
Angular grid pruning method      GridPruning ... 3 (G Style)
Weight generation scheme         WeightScheme... Becke
Basis function cutoff            BFCut       ... 1.0000e-11
Integration weight cutoff        WCut        ... 1.0000e-14
Partially contracted basis set               ... off
Rotationally invariant grid construction     ... off
Angular grids for H and He will be reduced by one unit
Total number of grid points                  ...    66086
Total number of batches                      ...     1035
Average number of points per batch           ...       63
Average number of grid points per atom       ...    16522

--------------------
COSX GRID GENERATION
--------------------

GRIDX 1
-------
General Integration Accuracy     IntAcc      ... 3.816
Radial Grid Type                 RadialGrid  ... OptM3 with GC (2021)
Angular Grid (max. ang.)         AngularGrid ... 1 (Lebedev-50)
Angular grid pruning method      GridPruning ... 3 (G Style)
Weight generation scheme         WeightScheme... Becke
Basis function cutoff            BFCut       ... 1.0000e-11
Integration weight cutoff        WCut        ... 1.0000e-14
Partially contracted basis set               ... on
Rotationally invariant grid construction     ... off
Angular grids for H and He will be reduced by one unit
Total number of grid points                  ...    23856
Total number of batches                      ...      189
Average number of points per batch           ...      126
Average number of grid points per atom       ...     5964
UseSFitting                                  ... on

GRIDX 2
-------
General Integration Accuracy     IntAcc      ... 4.020
Radial Grid Type                 RadialGrid  ... OptM3 with GC (2021)
Angular Grid (max. ang.)         AngularGrid ... 2 (Lebedev-110)
Angular grid pruning method      GridPruning ... 3 (G Style)
Weight generation scheme         WeightScheme... Becke
Basis function cutoff            BFCut       ... 1.0000e-11
Integration weight cutoff        WCut        ... 1.0000e-14
Partially contracted basis set               ... on
Rotationally invariant grid construction     ... off
Angular grids for H and He will be reduced by one unit
Total number of grid points                  ...    23856
Total number of batches                      ...      189
Average number of points per batch           ...      126
Average number of grid points per atom       ...     5964
UseSFitting                                  ... on

GRIDX 3
-------
General Integration Accuracy     IntAcc      ... 4.338
Radial Grid Type                 RadialGrid  ... OptM3 with GC (2021)
Angular Grid (max. ang.)         AngularGrid ... 3 (Lebedev-194)
Angular grid pruning method      GridPruning ... 3 (G Style)
Weight generation scheme         WeightScheme... Becke
Basis function cutoff            BFCut       ... 1.0000e-11
Integration weight cutoff        WCut        ... 1.0000e-14
Partially contracted basis set               ... on
Rotationally invariant grid construction     ... off
Angular grids for H and He will be reduced by one unit
Total number of grid points                  ...    23856
Total number of batches                      ...      189
Average number of points per batch           ...      126
Average number of grid points per atom       ...     5964
UseSFitting                                  ... on
Grids setup in   1.2 sec
Initializing property integral containers    ... done (  0.0 sec)

SHARK setup successfully completed in   1.6 seconds

Maximum memory used throughout the entire STARTUP-calculation: 21.5 MB


           ************************************************************
           *        Program running with 4 parallel MPI-processes     *
           *              working on a common directory               *
           ************************************************************
-------------------------------------------------------------------------------
                                 ORCA GUESS
                   Start orbitals & Density for SCF / CASSCF
-------------------------------------------------------------------------------

------------
SCF SETTINGS
------------
Hamiltonian:
 Density Functional     Method          .... DFT(GTOs)
 Exchange Functional    Exchange        .... B88
   X-Alpha parameter    XAlpha          ....  0.666667
   Becke's b parameter  XBeta           ....  0.004200
 Correlation Functional Correlation     .... LYP
 LDA part of GGA corr.  LDAOpt          .... VWN-5
 Gradients option       PostSCFGGA      .... off
 Hybrid DFT is turned on
   Fraction HF Exchange ScalHFX         ....  0.200000
   Scaling of DF-GGA-X  ScalDFX         ....  0.720000
   Scaling of DF-GGA-C  ScalDFC         ....  0.810000
   Scaling of DF-LDA-C  ScalLDAC        ....  1.000000
   Perturbative correction              ....  0.000000
   NL short-range parameter             ....  4.800000
 RI-approximation to the Coulomb term is turned on
   Number of AuxJ basis functions       .... 298
   RIJ-COSX (HFX calculated with COS-X)).... on


General Settings:
 Integral files         IntName         .... cu2i2_rhombic_smd_grid5_sp
 Hartree-Fock type      HFTyp           .... RHF
 Total Charge           Charge          ....    0
 Multiplicity           Mult            ....    1
 Number of Electrons    NEL             ....  108
 Basis Dimension        Dim             ....  190
 Nuclear Repulsion      ENuc            ....    851.5572399391 Eh

Convergence Acceleration:
 AO-DIIS                CNVDIIS         .... on
   Start iteration      DIISMaxIt       ....    12
   Startup error        DIISStart       ....  0.200000
   # of expansion vecs  DIISMaxEq       ....     5
   Bias factor          DIISBfac        ....   1.050
   Max. coefficient     DIISMaxC        ....  10.000
 MO-DIIS                CNVKDIIS        .... off
 Trust-Rad. Augm. Hess. CNVTRAH         .... auto
   Auto Start mean grad. ratio tolernc. ....  1.125000
   Auto Start start iteration           ....    50
   Auto Start num. interpolation iter.  ....    10
   Max. Number of Micro iterations      ....    24
   Max. Number of Macro iterations      .... Maxiter - #DIIS iter
   Number of Davidson start vectors     ....     2
   Converg. threshold    (grad. norm)   ....   1.000e-05
   Grad. Scal. Fac. for Micro threshold ....   0.100
   Minimum threshold for Micro iter.    ....   1.000e-02
   NR start threshold (gradient norm)   ....   1.000e-04
   Initial trust radius                 ....   0.400
   Minimum AH scaling param. (alpha)    ....   1.000
   Maximum AH scaling param. (alpha)    .... 1000.000
   Quad. conv. algorithm                .... NR
   White noise on init. David. guess    .... on
   Maximum white noise                  ....   0.010
   Pseudo random numbers                .... off
   Inactive MOs                         .... canonical
   Orbital update algorithm             .... Taylor
   Preconditioner                       .... Diag
   Full preconditioner red. dimension   ....   250
 SOSCF                 CNVSOSCF           .... on
   Start iteration     SOSCFMaxIt         ....   150
   Startup grad/error  SOSCFStart         ....  0.003300
   Hessian update      SOSCFHessUp        .... L-BFGS
   Autom. constraints  SOSCFAutoConstrain .... off
 Level Shifting         CNVShift        .... on
   Level shift para.    LevelShift      ....    0.2500
   Turn off err/grad.   ShiftErr        ....    0.0010
 Zerner damping         CNVZerner       .... off
 Static damping         CNVDamp         .... on
   Fraction old density DampFac         ....    0.7000
   Max. Damping (<1)    DampMax         ....    0.9800
   Min. Damping (>=0)   DampMin         ....    0.0000
   Turn off err/grad.   DampErr         ....    0.1000

SCF Procedure:
 Maximum # iterations   MaxIter         ....   125
 SCF integral mode      SCFMode         .... Direct
   Integral package                     .... SHARK and LIBINT hybrid scheme
 Reset frequency        DirectResetFreq ....    20
 Integral Threshold     Thresh          ....  2.500e-11 Eh
 Primitive CutOff       TCut            ....  2.500e-12 Eh

Convergence Tolerance:
 Convergence Check Mode ConvCheckMode   .... Total+1el-Energy
 Convergence forced     ConvForced      .... 0
 Energy Change          TolE            ....  1.000e-08 Eh
 1-El. energy change                    ....  1.000e-05 Eh
 Orbital Gradient       TolG            ....  1.000e-05
 Orbital Rotation angle TolX            ....  1.000e-05
 DIIS Error             TolErr          ....  5.000e-07

------------------------------
INITIAL GUESS: MODEL POTENTIAL
------------------------------
Loading Hartree-Fock densities                     ... done
Atomic calculation to generate a density for atom 2 (I  with ECP)
  Multiplicity assumed   :    2
  Atomic configuration   : 1s2 2s2 2p6 3s2 3p6 4s2 3d10 4p6 5s2 4d10 5p5 
  Number of open shells  : 1
  Command: /workspace/orca_6_1_1/orca cu2i2_rhombic_smd_grid5_sp_atom53.inp "" > cu2i2_rhombic_smd_grid5_sp_atom53.out
Returned from the atomic calculation with res=0
Calculating cut-offs                               ... done
Initializing the effective Hamiltonian             ... done
Setting up the integral package (SHARK)            ... done
Starting the Coulomb interaction                   ... done (   0.1 sec)
Making the grid                                    ... done (   0.1 sec)
Mapping shells                                     ... done
Starting the XC term evaluation                    ... done (   0.0 sec)
  promolecular density results
     # of electrons  =    163.999371687
     EX              =   -479.509547877
     EC              =     -8.170540354
     EX+EC           =   -487.680088230
Transforming the Hamiltonian                       ... done (   0.0 sec)
Diagonalizing the Hamiltonian                      ... done (   0.0 sec)
Back transforming the eigenvectors                 ... done (   0.0 sec)
Now organizing SCF variables                       ... done
                      ------------------
                      INITIAL GUESS DONE (   5.0 sec)
                      ------------------
             **** ENERGY FILE WAS UPDATED (cu2i2_rhombic_smd_grid5_sp.en.tmp) ****
Finished Guess after   5.3 sec
Maximum memory used throughout the entire GUESS-calculation: 12.1 MB


           ************************************************************
           *        Program running with 4 parallel MPI-processes     *
           *              working on a common directory               *
           ************************************************************

-------------------------------------------------------------------------------------------
                                      ORCA LEAN-SCF
                              memory conserving SCF solver
-------------------------------------------------------------------------------------------

--------------------
CPCM SOLVATION MODEL
--------------------
CPCM parameters:
  Epsilon                                         ...      78.3550
  Refrac                                          ...       1.3328
  Rsolv                                           ...       1.3000
  Surface type                                    ... GAUSSIAN VDW
  Discretization scheme                           ... Constant charge density
    Threshold for H atoms                         ...       5.0000 (charges/Ang^2)
    Threshold for non-H atoms                     ...       5.0000 (charges/Ang^2)
  Epsilon function type                           ...         CPCM
Solvent:                                          ... WATER
SMD-CDS solvent descriptors:
  Soln                                            ...       1.3328
  Soln25                                          ...       1.3323
  Sola                                            ...       0.0000
  Solb                                            ...       0.0000
  Solg                                            ...       0.0000
  Solc                                            ...       0.0000
  Solh                                            ...       0.0000
Radii:
  Scheme                                          ... Element-dependent radii
  Radius for Cu used is    3.5149 Bohr (=   1.8600 Ang.)
  Radius for I  used is    3.7417 Bohr (=   1.9800 Ang.)
Calculating surface                               ...        done! (  0.0s)
Cavity surface points                             ...          580
Cavity Volume                                     ...     670.7173
Cavity Surface-area                               ...     435.3048
Calculating surface distance matrix               ...        done! (  0.0s)
Performing Cholesky decomposition & store         ...        done! (  0.0s)
Overall time for CPCM initialization              ...                 0.0s

----------------------------------------D-I-I-S--------------------------------------------
Iteration    Energy (Eh)           Delta-E    RMSDP     MaxDP     DIISErr   Damp  Time(sec)
-------------------------------------------------------------------------------------------
               ***  Starting incremental Fock matrix formation  ***
    1    -3876.3473537972649865     0.00e+00  4.84e-03  8.17e-02  5.82e-01  0.700   1.5
    2    -3876.4086605038473863    -6.13e-02  3.09e-03  4.89e-02  3.94e-01  0.700   1.4
    3    -3876.4385864215728361    -2.99e-02  1.78e-03  3.27e-02  2.67e-01  0.700   1.3
                               ***Turning on AO-DIIS***
    4    -3876.4592674685964084    -2.07e-02  9.76e-04  2.22e-02  1.82e-01  0.700   1.3
    5    -3876.4729108663150328    -1.36e-02  6.94e-04  1.72e-02  1.30e-01  0.700   1.2
    6    -3876.4828174192343795    -9.91e-03  5.93e-04  1.38e-02  9.21e-02  0.700   1.2
    7    -3876.4898769781484589    -7.06e-03  1.54e-03  3.30e-02  6.46e-02  0.000   1.2
                              *** Initializing SOSCF ***
---------------------------------------S-O-S-C-F--------------------------------------
Iteration    Energy (Eh)           Delta-E    RMSDP     MaxDP     MaxGrad    Time(sec)
--------------------------------------------------------------------------------------
    8    -3876.5064109645090866    -1.65e-02  2.44e-04  3.85e-03  2.76e-03     1.3
               *** Restarting incremental Fock matrix formation ***
    9    -3876.5064387265265395    -2.78e-05  1.96e-04  2.48e-03  9.40e-04     1.5
   10    -3876.5063958592418203     4.29e-05  1.01e-04  1.28e-03  2.35e-03     1.2
   11    -3876.5064525253255852    -5.67e-05  7.12e-05  1.10e-03  3.75e-04     1.2
   12    -3876.5064524622621320     6.31e-08  3.89e-05  7.39e-04  4.00e-04     1.1
   13    -3876.5064542571508355    -1.79e-06  2.68e-06  4.04e-05  9.18e-06     1.0
   14    -3876.5064542831814833    -2.60e-08  1.00e-06  1.61e-05  3.99e-06     0.9
   15    -3876.5064542616410108     2.15e-08  2.85e-07  5.42e-06  1.02e-06     0.8
                  *** Gradient check signals convergence ***

               *****************************************************
               *                     SUCCESS                       *
               *           SCF CONVERGED AFTER  15 CYCLES          *
               *****************************************************

Setting up the final grid:

General Integration Accuracy     IntAcc      ... 5.340
Radial Grid Type                 RadialGrid  ... Gauss-Chebyshev
Angular Grid (max. ang.)         AngularGrid ... 6 (Lebedev-590)
Angular grid pruning method      GridPruning ... 3 (G Style)
Weight generation scheme         WeightScheme... Becke
Basis function cutoff            BFCut       ... 1.0000e-11
Integration weight cutoff        WCut        ... 1.0000e-14
Partially contracted basis set               ... off
Rotationally invariant grid construction     ... off
Angular grids for H and He will be reduced by one unit
Total number of grid points                  ...    99046
Total number of batches                      ...     1549
Average number of points per batch           ...       63
Average number of grid points per atom       ...    24762
Final grid set up in    1.9 sec
Final integration                            ... done (   0.1 sec)
Change in XC energy                          ...    -0.000042317
Integrated number of electrons               ...   107.999997030
Previous integrated no of electrons          ...   108.000005852
Recomputing exchange energy using gridx3       ... done (    1.125 sec)
Old exchange energy                            :    -34.733506637 Eh
New exchange energy                            :    -34.733507956 Eh
Exchange energy change after final integration :     -0.000001318 Eh
Total energy after final integration           :  -3876.506497850 Eh

SMD CDS free energy correction energy :                 0.00000     Kcal/mol
Total Energy after SMD CDS correction =             -3876.506497850 Eh
             **** ENERGY FILE WAS UPDATED (cu2i2_rhombic_smd_grid5_sp.en.tmp) ****

----------------
TOTAL SCF ENERGY
----------------

Total Energy       :      -3876.50649785008409 Eh         -105485.10457 eV

Components:
Nuclear Repulsion  :        851.55723993906417 Eh           23172.05054 eV
Electronic Energy  :      -4728.05274614706832 Eh         -128656.85601 eV
One Electron Energy:      -7311.83574451866662 Eh         -198965.16580 eV
Two Electron Energy:       2583.78299837159784 Eh           70308.30979 eV
CPCM Dielectric    :         -0.01094800692137 Eh              -0.29791 eV

Virial components:
Potential Energy   :      -7379.83125987733001 Eh         -200815.41784 eV
Kinetic Energy     :       3503.32476202724638 Eh           95330.31327 eV
Virial Ratio       :          2.10652216427885

DFT components:
N(Alpha)           :       53.999998514993 electrons
N(Beta)            :       53.999998514993 electrons
N(Total)           :      107.999997029986 electrons
E(X)               :     -138.590983903399 Eh       
E(C)               :       -5.537002494404 Eh       
E(XC)              :     -144.127986397804 Eh       

CPCM Solvation Model Properties:
Surface-charge          :         -0.10880206198784
Corrected charge        :          0.00000000000000
Outlying charge corr.   :          0.00101481537600 Eh               0.02761 eV
Free-energy (cav+disp)  :          0.00000000000000 Eh               0.00000 eV

---------------
SCF CONVERGENCE
---------------

  Last Energy change         ...   -2.1540e-08  Tolerance :   1.0000e-08
  Last MAX-Density change    ...    5.4200e-06  Tolerance :   1.0000e-07
  Last RMS-Density change    ...    2.8517e-07  Tolerance :   5.0000e-09
  Last DIIS Error            ...    2.7556e-03  Tolerance :   5.0000e-07
  Last Orbital Gradient      ...    1.0244e-06  Tolerance :   1.0000e-05
  Last Orbital Rotation      ...    2.2939e-06  Tolerance :   1.0000e-05


----------------
ORBITAL ENERGIES
----------------

  NO   OCC          E(Eh)            E(eV) 
   0   2.0000    -323.002711     -8789.3506 
   1   2.0000    -323.002705     -8789.3504 
   2   2.0000     -38.793752     -1055.6317 
   3   2.0000     -38.793716     -1055.6307 
   4   2.0000     -33.998455      -925.1450 
   5   2.0000     -33.998453      -925.1449 
   6   2.0000     -33.998385      -925.1431 
   7   2.0000     -33.998378      -925.1429 
   8   2.0000     -33.998140      -925.1364 
   9   2.0000     -33.998136      -925.1363 
  10   2.0000      -6.820802      -185.6035 
  11   2.0000      -6.820798      -185.6034 
  12   2.0000      -4.839143      -131.6798 
  13   2.0000      -4.839143      -131.6798 
  14   2.0000      -4.837662      -131.6395 
  15   2.0000      -4.837661      -131.6395 
  16   2.0000      -4.835240      -131.5736 
  17   2.0000      -4.835240      -131.5736 
  18   2.0000      -4.286248      -116.6347 
  19   2.0000      -4.286064      -116.6297 
  20   2.0000      -2.782098       -75.7047 
  21   2.0000      -2.781132       -75.6785 
  22   2.0000      -2.780982       -75.6744 
  23   2.0000      -2.780170       -75.6523 
  24   2.0000      -2.779268       -75.6277 
  25   2.0000      -2.779119       -75.6237 
  26   2.0000      -1.888286       -51.3829 
  27   2.0000      -1.888284       -51.3828 
  28   2.0000      -1.887822       -51.3702 
  29   2.0000      -1.887815       -51.3701 
  30   2.0000      -1.885740       -51.3136 
  31   2.0000      -1.885735       -51.3135 
  32   2.0000      -1.884319       -51.2749 
  33   2.0000      -1.884316       -51.2749 
  34   2.0000      -1.883933       -51.2644 
  35   2.0000      -1.883932       -51.2644 
  36   2.0000      -0.675117       -18.3709 
  37   2.0000      -0.669879       -18.2283 
  38   2.0000      -0.343120        -9.3368 
  39   2.0000      -0.330279        -8.9874 
  40   2.0000      -0.318363        -8.6631 
  41   2.0000      -0.298047        -8.1103 
  42   2.0000      -0.297431        -8.0935 
  43   2.0000      -0.294811        -8.0222 
  44   2.0000      -0.277392        -7.5482 
  45   2.0000      -0.274100        -7.4586 
  46   2.0000      -0.268699        -7.3117 
  47   2.0000      -0.265434        -7.2228 
  48   2.0000      -0.263876        -7.1804 
  49   2.0000      -0.263487        -7.1698 
  50   2.0000      -0.254816        -6.9339 
  51   2.0000      -0.234529        -6.3818 
  52   2.0000      -0.229934        -6.2568 
  53   2.0000      -0.227847        -6.2000 
  54   0.0000      -0.050050        -1.3619 
  55   0.0000      -0.042386        -1.1534 
  56   0.0000       0.045011         1.2248 
  57   0.0000       0.049475         1.3463 
  58   0.0000       0.075155         2.0451 
  59   0.0000       0.095817         2.6073 
  60   0.0000       0.099237         2.7004 
  61   0.0000       0.112814         3.0698 
  62   0.0000       0.129320         3.5190 
  63   0.0000       0.145374         3.9558 
  64   0.0000       0.155954         4.2437 
*Only the first 10 virtual orbitals were printed.

                    ********************************
                    * MULLIKEN POPULATION ANALYSIS *
                    ********************************

-----------------------
MULLIKEN ATOMIC CHARGES
-----------------------
   0 Cu:    0.315294
   1 Cu:    0.315292
   2 I :   -0.315293
   3 I :   -0.315293
Sum of atomic charges:   -0.0000000

--------------------------------
MULLIKEN REDUCED ORBITAL CHARGES
--------------------------------
  0 Cus       :     6.486623  s :     6.486623
      pz      :     4.037268  p :    12.280982
      px      :     4.062725
      py      :     4.180989
      dz2     :     1.985561  d :     9.917057
      dxz     :     1.992482
      dyz     :     1.989766
      dx2y2   :     1.955570
      dxy     :     1.993678
      f0      :     0.000004  f :     0.000045
      f+1     :     0.000005
      f-1     :     0.000007
      f+2     :     0.000003
      f-2     :     0.000004
      f+3     :     0.000011
      f-3     :     0.000011

  1 Cus       :     6.486624  s :     6.486624
      pz      :     4.037268  p :    12.280982
      px      :     4.062725
      py      :     4.180990
      dz2     :     1.985561  d :     9.917057
      dxz     :     1.992482
      dyz     :     1.989766
      dx2y2   :     1.955570
      dxy     :     1.993678
      f0      :     0.000004  f :     0.000045
      f+1     :     0.000005
      f-1     :     0.000007
      f+2     :     0.000003
      f-2     :     0.000004
      f+3     :     0.000011
      f-3     :     0.000011

  2 I s       :     3.942632  s :     3.942632
      pz      :     3.964179  p :    11.324344
      px      :     3.769431
      py      :     3.590734
      dz2     :     2.003345  d :    10.040978
      dxz     :     2.003347
      dyz     :     2.010711
      dx2y2   :     2.014583
      dxy     :     2.008992
      f0      :     0.000811  f :     0.007339
      f+1     :     0.000384
      f-1     :     0.001085
      f+2     :     0.000554
      f-2     :     0.000871
      f+3     :     0.001648
      f-3     :     0.001985

  3 I s       :     3.942632  s :     3.942632
      pz      :     3.964179  p :    11.324344
      px      :     3.769431
      py      :     3.590734
      dz2     :     2.003345  d :    10.040978
      dxz     :     2.003347
      dyz     :     2.010711
      dx2y2   :     2.014583
      dxy     :     2.008992
      f0      :     0.000811  f :     0.007339
      f+1     :     0.000384
      f-1     :     0.001085
      f+2     :     0.000554
      f-2     :     0.000871
      f+3     :     0.001648
      f-3     :     0.001985



                     *******************************
                     * LOEWDIN POPULATION ANALYSIS *
                     *******************************

----------------------
LOEWDIN ATOMIC CHARGES
----------------------
   0 Cu:   -0.232329
   1 Cu:   -0.232332
   2 I :    0.232330
   3 I :    0.232331

-------------------------------
LOEWDIN REDUCED ORBITAL CHARGES
-------------------------------
  0 Cus       :     6.415111  s :     6.415111
      pz      :     4.042462  p :    12.405272
      px      :     4.090965
      py      :     4.271845
      dz2     :     2.034337  d :    10.411872
      dxz     :     2.018988
      dyz     :     2.089262
      dx2y2   :     2.137232
      dxy     :     2.132054
      f0      :     0.000006  f :     0.000073
      f+1     :     0.000007
      f-1     :     0.000012
      f+2     :     0.000004
      f-2     :     0.000006
      f+3     :     0.000023
      f-3     :     0.000015

  1 Cus       :     6.415112  s :     6.415112
      pz      :     4.042462  p :    12.405273
      px      :     4.090965
      py      :     4.271846
      dz2     :     2.034337  d :    10.411873
      dxz     :     2.018988
      dyz     :     2.089262
      dx2y2   :     2.137232
      dxy     :     2.132054
      f0      :     0.000006  f :     0.000073
      f+1     :     0.000007
      f-1     :     0.000012
      f+2     :     0.000004
      f-2     :     0.000006
      f+3     :     0.000023
      f-3     :     0.000015

  2 I s       :     3.622309  s :     3.622309
      pz      :     3.825409  p :    11.054143
      px      :     3.659793
      py      :     3.568941
      dz2     :     2.008715  d :    10.078101
      dxz     :     2.004773
      dyz     :     2.015580
      dx2y2   :     2.030689
      dxy     :     2.018344
      f0      :     0.001281  f :     0.013117
      f+1     :     0.000667
      f-1     :     0.001817
      f+2     :     0.000763
      f-2     :     0.001467
      f+3     :     0.003828
      f-3     :     0.003296

  3 I s       :     3.622309  s :     3.622309
      pz      :     3.825409  p :    11.054142
      px      :     3.659792
      py      :     3.568941
      dz2     :     2.008715  d :    10.078101
      dxz     :     2.004773
      dyz     :     2.015580
      dx2y2   :     2.030689
      dxy     :     2.018344
      f0      :     0.001281  f :     0.013117
      f+1     :     0.000667
      f-1     :     0.001817
      f+2     :     0.000763
      f-2     :     0.001467
      f+3     :     0.003828
      f-3     :     0.003296



                      *****************************
                      * MAYER POPULATION ANALYSIS *
                      *****************************

  NA   - Mulliken gross atomic population
  ZA   - Total nuclear charge
  QA   - Mulliken gross atomic charge
  VA   - Mayer's total valence
  BVA  - Mayer's bonded valence
  FA   - Mayer's free valence

  ATOM       NA         ZA         QA         VA         BVA        FA
  0 Cu    28.6847    29.0000     0.3153     1.3735     1.3735    -0.0000
  1 Cu    28.6847    29.0000     0.3153     1.3735     1.3735    -0.0000
  2 I     25.3153    25.0000    -0.3153     1.2419     1.2419    -0.0000
  3 I     25.3153    25.0000    -0.3153     1.2419     1.2419     0.0000

  Mayer bond orders larger than 0.100000
B(  0-Cu,  1-Cu) :   0.1653 B(  0-Cu,  2-I ) :   0.6041 B(  0-Cu,  3-I ) :   0.6041 
B(  1-Cu,  2-I ) :   0.6041 B(  1-Cu,  3-I ) :   0.6041 

-------
TIMINGS
-------

Total SCF time: 0 days 0 hours 0 min 22 sec 

Total time                  ....      22.368 sec
Sum of individual times     ....      21.556 sec  ( 96.4%)

SCF preparation             ....       0.462 sec  (  2.1%)
Fock matrix formation       ....      17.992 sec  ( 80.4%)
  Startup                   ....       0.061 sec  (  0.3% of F)
  Split-RI-J                ....       1.013 sec  (  5.6% of F)
  Chain of spheres X        ....      13.746 sec  ( 76.4% of F)
  XC integration            ....       1.992 sec  ( 11.1% of F)
    XC Preparation          ....       0.000 sec  (  0.0% of XC)
    Basis function eval.    ....       0.510 sec  ( 25.6% of XC)
    Density eval.           ....       0.398 sec  ( 20.0% of XC)
    XC-Functional eval.     ....       0.099 sec  (  5.0% of XC)
    XC-Potential eval.      ....       0.443 sec  ( 22.2% of XC)
  CPCM terms                ....       1.027 sec  (  5.7% of F)
Diagonalization             ....       0.000 sec  (  0.0%)
Density matrix formation    ....       0.300 sec  (  1.3%)
Total Energy calculation    ....       0.102 sec  (  0.5%)
Population analysis         ....       0.036 sec  (  0.2%)
Orbital Transformation      ....       0.052 sec  (  0.2%)
Orbital Orthonormalization  ....       0.000 sec  (  0.0%)
DIIS solution               ....       0.363 sec  (  1.6%)
SOSCF solution              ....       0.319 sec  (  1.4%)
Grid generation             ....       1.930 sec  (  8.6%)
Finished LeanSCF after  22.4 sec

Maximum memory used throughout the entire LEANSCF-calculation: 28.3 MB


-------------------------------------------------------------------------------
                          DFT DISPERSION CORRECTION                            
                                                                               
                              DFTD3 V3.1  Rev 1                                
                          USING Becke-Johnson damping                          
-------------------------------------------------------------------------------
The B3LYP functional is recognized
Active option DFTDOPT                   ...         4   

molecular C6(AA) [au] = 4100.733251 


            DFT-D V3
 parameters
 s6 scaling factor         :     1.0000 
 a1 scaling factor         :     0.3981 
 s8 scaling factor         :     1.9889 
 a2 scaling factor         :     4.4211 
 ad hoc parameters k1-k3   :    16.0000     1.3333    -4.0000 

 Edisp/kcal,au: -10.132459004069  -0.016147099513 
 E6   /kcal   :  -2.766855814 
 E8   /kcal   :  -7.365603190 
 % E8         :  72.693145735 

-------------------------   ----------------
Dispersion correction           -0.016147100
-------------------------   ----------------


-------------------------   --------------------
FINAL SINGLE POINT ENERGY     -3876.522644949597
-------------------------   --------------------



           ************************************************************
           *        Program running with 4 parallel MPI-processes     *
           *              working on a common directory               *
           ************************************************************

------------------------------------------------------------------------------
                              ORCA PROPERTY CALCULATIONS
------------------------------------------------------------------------------

GBWName                                 ... cu2i2_rhombic_smd_grid5_sp.gbw
Number of atoms                         ...      4
Number of basis functions               ...    190
Max core memory                         ...   8000 MB

Electric properties:
Dipole moment                           ... YES
Quadrupole moment                       ...  NO
Static polarizability (Dipole/Dipole)   ...  NO
Static polarizability (Dipole/Quad.)    ...  NO
Static polarizability (Quad./Quad.)     ...  NO
Static polarizability (Velocity)        ...  NO
Static hyperpolarizability              ...  NO

Atomic electric properties:
Dipole moment                           ...  NO
Quadrupole moment                       ...  NO
Static polarizability                   ...  NO

Choice of electric origin               ... Center of mass
Position of electric origin             ...     0.000001     0.000001     0.000000

General magnetic properties:
Magnetizability                         ...  NO

EPR properties:
g-Tensor (aka g-matrix)                 ...  NO
Zero-Field splitting spin-orbit         ...  NO
Zero-field splitting spin-spin          ...  NO
Hyperfine couplings                     ...  NO (   0 nuclei)
Quadrupole couplings                    ...  NO (   0 nuclei)
Contact density                         ...  NO (   0 nuclei)

NMR properties:
Chemical shifts                         ...  NO (   0 nuclei)
Spin-rotation constants                 ...  NO (   0 nuclei)
Spin-spin couplings                     ...  NO (   0 nuclei,    0 pairs)

Choice of magnetic origin               ... GIAO
Position of magnetic origin             ...     0.000000     0.000000     0.000000

Properties with geometric perturbations:
SCF Hessian                             ...  NO
IR spectrum                             ...  NO
VCD spectrum                            ...  NO
X-ray spectroscopy properties:
SCF XES/XAS/RIXS spectra                ...  NO

SCF SOC stabilization energy            ...  NO
Diagonal Born-Oppenheimer correction    ...  NO

-------------
DIPOLE MOMENT
-------------

Method             : SCF
Type of density    : Electron Density
Multiplicity       :   1
Irrep              :   0
Energy             : -3876.5064978500840880 Eh
Basis              : AO
                                X                 Y                 Z
Electronic contribution:      0.000076780       0.000018484       0.000000124
Nuclear contribution   :     -0.000083005      -0.000020751       0.000000000
                        -----------------------------------------
Total Dipole Moment    :     -0.000006225      -0.000002268       0.000000124
                        -----------------------------------------
Magnitude (a.u.)       :      0.000006627
Magnitude (Debye)      :      0.000016844



--------------------
Rotational spectrum 
--------------------
 
Rotational constants in cm-1:             0.087259             0.013092             0.011384 
Rotational constants in MHz :          2615.966477           392.494877           341.288559 

Dipole components along the rotational axes: 
x,y,z [a.u.] :     0.000002     0.000006     0.000000 
x,y,z [Debye]:     0.000006     0.000016     0.000000 

 

Dipole moment calculation done in   0.0 sec 

Maximum memory used throughout the entire PROP-calculation: 9.2 MB

--------------------------------
SUGGESTED CITATIONS FOR THIS RUN
--------------------------------

Below you find a list of papers that are relevant to this ORCA run
We neither can nor want to force you to cite these papers, but we appreciate if you do
You receive ORCA, which is the product of decades of hard work by many enthusiastic individuals, for free
The only thing we kindly ask in return is that you cite our papers,
We deeply appreciate it, if you show your appreciation for ORCA by not just citing the generic ORCA reference.

Please note that relegating all ORCA citations to the supporting information does *not* help us.
SI sections are not indexed - citations you put there will not count into any citation statistics
But we need these citations in order to attract the funding resources that allow us to do what we are doing

Therefore, if you are a happy ORCA user, please consider citing a few of the papers listed below in the main body of your paper

In addition to the list printed below, the program has created the file cu2i2_rhombic_smd_grid5_sp.bibtex that contains the list in bibtex format
You can import this file easily into all common literature databanks and citation aid programs

It goes without saying that in many instances, there are alternative algorithms to achieve similar
results as the ones you have gotten from ORCA. It is, of course, also the case that in some instances
ORCA just re-implements algorithms worked out by others. We are fully aware of that and we are also
fully appreciative of our colleagues work. Hence this citation list should not be read as indicating
that the listed papers, which are focused on our own work, are the only ones worth citing. It simply
meant to make it easier for users to cite ORCA specific papers. It is not a substitute for doing your
own literature research and citing the relevant literature in a scientifically appropriate manner.

List of essential papers. We consider these as the minimum necessary citations

  1. Neese, F.
     Software update: the ORCA program system, version 6.0
     WIRES Comput. Molec. Sci. 2025 15(1), e70019
     doi.org/10.1002/wcms.70019

List of papers to cite with high priority. The work reported in these papers was absolutely
necessary for this run to complete.
Our perspective: the developers of density functionals and basis sets usually get cited in chemistry papers
Good! But without the algorithms to do something with them, the functionals or basis sets would not do anything.
Hence, in our opinion, the algorithm design and method developments papers are equally worthy of getting cited

  1. Neese, F.
     An improvement of the resolution of the identity approximation for the formation of the Coulomb matrix
     J. Comp. Chem. 2003 24(14), 1740-1747
     doi.org/10.1002/jcc.10318
  2. Neese, F.; Wennmohs, F.; Hansen, A.; Becker, U.
     Efficient, approximate and parallel Hartree-Fock and hybrid DFT calculations. A 'chain-of-spheres' algorithm for the Hartree-Fock exchange
     Chem. Phys. 2009 356(1-3), 98-109
     doi.org/10.1016/j.chemphys.2008.10.036
  3. Grimme, S.; Antony, J.; Ehrlich, S.; Krieg, H.
     A consistent and accurate ab initio parametrization of density functional dispersion correction (DFT-D) for the 94 elements H-Pu
     J. Chem. Phys. 2010 132 , 154104
     doi.org/10.1063/1.3382344
  4. Grimme, S.; Ehrlich, S.; Goerigk, L.
     Effect of the damping function in dispersion corrected density functional theory
     J. Comput. Chem. 2011 32(7), 1456-1465
     doi.org/10.1002/jcc.21759
  5. Garcia-Rates, M.; Neese, F.
     Effect of the Solute Cavity on the Solvation Energy and its Derivatives within the Framework of the Gaussian Charge Scheme
     J. Comput. Chem. 2020 41 , 922-939
     doi.org/10.1002/jcc.26139
  6. Helmich-Paris, B.; de Souza, B.; Neese, F.; Izsák, R.
     An improved chain of spheres for exchange algorithm
     J. Chem. Phys. 2021 155(10), 104109
     doi.org/10.1063/5.0058766
  7. Neese, F.
     The SHARK Integral Generation and Digestion System
     J. Comp. Chem. 2022 44(3), 381
     doi.org/10.1002/jcc.26942

List of suggested additional citations. These are papers that are important in the 'surrounding' of 
of this run, or papers that preceded the highly important papers. If you like your results we are grateful for a citation.

  1. Izsak, R.; Neese, F.
     An overlap fitted chain of spheres exchange method
     J. Chem. Phys. 2011 135 , 144105
     doi.org/10.1063/1.3646921
  2. Izsak, R.; Hansen, A.; Neese, F.
     The resolution of identity and chain of spheres approximations for the LPNO-CCSD singles Fock term
     Molec. Phys. 2012 110 , 2413-2417
     doi.org/10.1080/00268976.2012.687466
  3. Neese, F.
     The ORCA program system
     WIRES Comput. Molec. Sci. 2012 2(1), 73-78
     doi.org/10.1002/wcms.81
  4. Izsak, R.; Neese, F.; Klopper, W.
     Robust fitting techniques in the chain of spheres approximation to the Fock exchange: The role of the complementary space
     J. Chem. Phys. 2013 139 , 
     doi.org/10.1063/1.4819264
  5. Neese, F.
     Software update: the ORCA program system, version 4.0
     WIRES Comput. Molec. Sci. 2018 8(1), 1-6
     doi.org/10.1002/wcms.1327
  6. Neese, F.; Wennmohs, F.; Becker, U.; Riplinger, C.
     The ORCA quantum chemistry program package
     J. Chem. Phys. 2020 152(22), 224108
     doi.org/10.1063/5.0004608
  7. Neese, F.
     Software update: The ORCA program system—Version 5.0
     WIRES Comput. Molec. Sci. 2022 12(1), e1606
     doi.org/10.1002/wcms.1606

List of optional additional citations

  1. Neese, F.
     Approximate second-order SCF convergence for spin unrestricted wavefunctions
     Chem. Phys. Lett. 2000 325(1-3), 93-98
     doi.org/10.1016/s0009-2614(00)00662-x

Timings for individual modules:

Sum of individual times          ...       31.213 sec (=   0.520 min)
Startup calculation              ...        2.194 sec (=   0.037 min)   7.0 %
SCF iterations                   ...       28.391 sec (=   0.473 min)  91.0 %
Property calculations            ...        0.628 sec (=   0.010 min)   2.0 %
                             ****ORCA TERMINATED NORMALLY****
TOTAL RUN TIME: 0 days 0 hours 0 minutes 32 seconds 452 msec
