
                                 *****************
                                 * O   R   C   A *
                                 *****************

                                            #,                                       
                                            ###                                      
                                            ####                                     
                                            #####                                    
                                            ######                                   
                                           ########,                                 
                                     ,,################,,,,,                         
                               ,,#################################,,                 
                          ,,##########################################,,             
                       ,#########################################, ''#####,          
                    ,#############################################,,   '####,        
                  ,##################################################,,,,####,       
                ,###########''''           ''''###############################       
              ,#####''   ,,,,##########,,,,          '''####'''          '####       
            ,##' ,,,,###########################,,,                        '##       
           ' ,,###''''                  '''############,,,                           
         ,,##''                                '''############,,,,        ,,,,,,###''
      ,#''                                            '''#######################'''  
     '                                                          ''''####''''         
             ,#######,   #######,   ,#######,      ##                                
            ,#'     '#,  ##    ##  ,#'     '#,    #''#        ,####,    ,#,          
            ##       ##  ##   ,#'  ##            #'  '#       #'       ,# #          
            ##       ##  #######   ##           ,######,      #####,      #          
            '#,     ,#'  ##    ##  '#,     ,#' ,#      #,     #,   #      #          
             '#######'   ##     ##  '#######'  #'      '#     '####' #    #          



                #########################################################
                #                        -***-                          #
                #          Department of theory and spectroscopy        #
                #                                                       #
                #                      Frank Neese                      #
                #                                                       #
                #     Directorship, Architecture, Infrastructure        #
                #                    SHARK, DRIVERS                     #
                #        Core code/Algorithms in most modules           #
                #                                                       #
                #        Max Planck Institute fuer Kohlenforschung      #
                #                Kaiser Wilhelm Platz 1                 #
                #                 D-45470 Muelheim/Ruhr                 #
                #                      Germany                          #
                #                                                       #
                #                  All rights reserved                  #
                #                        -***-                          #
                #########################################################


                         Program Version 6.1.1  -  RELEASE   -
                                (GIT: $487d211c$)
                          ($2025-11-21 10:33:24 +0100$)


 With contributions from (in alphabetic order):
[Max-Planck-Institut fuer Kohlenforschung]                               
  Daniel Aravena         : Magnetic Suceptibility                        
  Michael Atanasov       : Ab Initio Ligand Field Theory (pilot matlab implementation)
  Alexander A. Auer      : GIAO ZORA, VPT2 properties, NMR spectrum      
  Ute Becker             : All parallelization in ORCA, NUMFREQ, NUMCALC 
  Giovanni Bistoni       : ED, misc. LED, open-shell LED, HFLD           
  Dmytro Bykov           : pre 5.0 version of the SCF Hessian            
  Marcos Casanova-Páez   : Triplet and SCS-CIS(D). UHF-(DLPNO)-IP/EA/STEOM-CCSD. UHF-CVS-IP/STEOM-CCSD   
  Vijay G. Chilkuri      : MRCI spin determinant printing, contributions to CSF-ICE 
  Pauline Colinet        : FMM embedding                                 
  Dipayan Datta          : RHF DLPNO-CCSD density                        
  Achintya Kumar Dutta   : EOM-CC, STEOM-CC                              
  Nicolas Foglia         : Exact transition moments, OPA infrastructure, MCD improvements    
  Dmitry Ganyushin       : Spin-Orbit,Spin-Spin,Magnetic field MRCI      
  Miquel Garcia-Rates    : C-PCM and meta-GGA Hessian, CCSD/C-PCM, Gaussian charge scheme 
  Tiago L. C. Gouveia    : GS-ROHF, GS-ROCIS                             
  Yang Guo               : DLPNO-NEVPT2, F12-NEVPT2, CIM, IAO-localization        
  Andreas Hansen         : Spin unrestricted coupled pair/coupled cluster methods 
  Ingolf Harden          : AUTO-CI MPn and infrastructure                
  Benjamin Helmich-Paris : MC-RPA, TRAH-(SCF,CASSCF), AVAS, COSX integrals, SCF dyn. polar., MC-PDFT, srDFT 
  Lee Huntington         : MR-EOM, pCC                                   
  Robert Izsak           : Overlap fitted RIJCOSX, COSX-SCS-MP3, EOM     
  Riya Kayal             : Wick's Theorem for AUTO-CI, AUTO-CI UHF-CCSDT 
  Emily Kempfer          : AUTO-CI RHF CISDT and CCSDT, approximate NEVPT4
  Christian Kollmar      : KDIIS, OOCD, Brueckner-CCSD(T), CCSD density, CASPT2, CASPT2-K, improved NEVPT2 
  Axel Koslowski         : Symmetry handling                             
  Simone Kossmann        : meta-GGA functionals, TD-DFT gradient, OOMP2, (MP2 Hessian; deprecated post 5.0) 
  Lucas Lang             : DCDCAS, Hyperfine gauge corrections, ICE-SOC+SSC
  Marvin Lechner         : AUTO-CI (C++ implementation), FIC-MRCC        
  Spencer Leger          : CASSCF response                               
  Dagmar Lenk            : GEPOL surface, SMD, ORCA-2-JSON               
  Dimitrios Liakos       : Extrapolation schemes; Compound Job, Property file
  Dimitrios Manganas     : Further ROCIS development; embedding schemes. LFT, Crystal Embedding 
  Dimitrios Pantazis     : SARC Basis sets                               
  Anastasios Papadopoulos: AUTO-CI, single reference methods and gradients 
  Taras Petrenko         : pre 6.0 DFT Hessian and TD-DFT gradient,  ECA, NRVS 
  Petra Pikulova         : Analytic Raman intensities                    
  Peter Pinski           : DLPNO-MP2, DLPNO-MP2 Gradient                 
  Shashank Vittal Rao    : ES-AILFT, MagRelax                            
  Christoph Reimann      : Effective Core Potentials                     
  Marius Retegan         : Local ZFS, SOC                                
  Christoph Riplinger    : Optimizer, TS searches, QM/MM, DLPNO-CCSD(T), (RO)-DLPNO pert. Triples 
  Michael Roemelt        : Original ROCIS implementation, recursive CI coupling coefficients
  Masaaki Saitow         : Open-shell DLPNO-CCSD energy and density      
  Barbara Sandhoefer     : DKH picture change effects                    
  Yorick L. A. Schmerwitz: GMF and freeze-and-release deltaSCF, NEB S-IDPP initial path                    
  Kantharuban Sivalingam : CASSCF convergence/infrastructure, NEVPT2, NEVPT3, NEVPT4(SD), FIC-MRCI and CEPA variants
  Bernardo de Souza      : ESD, SOC TD-DFT                               
  Georgi L. Stoychev     : AutoAux, RI-MP2 NMR, DLPNO-MP2 response, X2C  
  Van Anh Tran           : RI-MP2 g-tensors                              
  Willem Van den Heuvel  : Paramagnetic NMR                              
  Zikuan Wang            : NOTCH, Electric field optimization            
  Frank Wennmohs         : Technical directorship and infrastructure     
  Hang Xu                : AUTO-CI-Response properties                   
                                                                         
[FACCTs GmbH]                                                            
  Markus Bursch, Nicolas Foglia, Miquel Garcia-Rates, Ingolf Harden, Hagen Neugebauer, Anastasios Papadopoulos, 
  Christoph Riplinger, Bernardo de Souza, Georgi L. Stoychev                                                    
                                                                 
  APM, various basis sets, CI-OPT, improved COSX, DLPNO-Multilevel,           
  DOCKER, DRACO, updates on ESD, Fragmentator, GOAT, IRC, LR-CPCM, L-BFGS, MBIS, meta-GGA TD-DFT gradient, ML-optimized integration grids, 
  MM, NACMEs, nearIR, NEB, NEB-TS, NL-DFT gradient (VV10), 2- and 3-layer-ONIOM, interface openCOSMO-RS, QMMM,   
  Crystal-QMMM, RESP, rigid body optimization, SF, symmetry and pop. for TD-DFT, various functionals, SOLVATOR                                   
                                                                         
[Other institutions]                                                     
  V. Asgeirsson          : NEB                                           
  Christoph Bannwarth    : sTDA-DFT, sTD-DFT, PBEh-3c, B97-3c, D3        
  Giovanni Bistoni       : ETS/NOCV, ADLD/ADEX, COVALED                  
  Martin Brehm           : Molecular dynamics                            
  Ronald Cardenas        : ETS/NOCV                                      
  Martina Colucci        : COVALED                                       
  Sebastian Ehlert       : rSCAN, r2SCAN, r2SCAN-3c, D4, dhf basis sets  
  Marvin Friede          : D4 for Fr, Ra, Ac-Lr                          
  Lars Goerigk           : TD-DFT with DH, B97 family of functionals     
  Stefan Grimme          : VdW corrections, initial TS optimization, DFT functionals, gCP, sTDA/sTD-DF 
  Waldemar Hujo          : DFT-NL                                        
  H. Jonsson             : NEB                                           
  Holger Kruse           : gCP                                           
  Marcel Mueller         : wB97X-3c, vDZP basis set                      
  Hagen Neugebauer       : wr2SCAN, Native XTB                           
  Gianluca Regni         : ADLD/ADEX                                     
  Tobias Risthaus        : pre 6.0 range-separated hybrid DFT and stability analysis
  Lukas Wittmann         : regularized MP2, r2SCAN double-hybrids, wr2SCAN        
                                                                         
We gratefully acknowledge several colleagues who have allowed us to      
interface, adapt or use parts of their codes:                            
  Ed Valeev, F. Pavosevic, A. Kumar             : LibInt (2-el integral package), F12 methods 
  Garnet Chan, S. Sharma, J. Yang, R. Olivares  : DMRG                   
  Ulf Ekstrom                                   : XCFun DFT Library      
  Mihaly Kallay                                 : mrcc  (arbitrary order and MRCC methods)
  Frank Weinhold                                : gennbo (NPA and NBO analysis)           
  Simon Mueller                                 : openCOSMO-RS                            
  Christopher J. Cramer and Donald G. Truhlar   : smd solvation model                     
  S Lehtola, MJT Oliveira, MAL Marques          : LibXC Library                           
  Liviu Ungur et al                             : ANISO software                          


 Your calculation uses the libint2 library for the computation of 2-el integrals
 For citations please refer to: http://libint.valeyev.net

 Your ORCA version has been built with support for libXC version: 7.0.0
 For citations please refer to: https://libxc.gitlab.io

 This ORCA versions uses:
   CBLAS   interface :  Fast vector & matrix operations
   LAPACKE interface :  Fast linear algebra routines
   SCALAPACK package :  Parallel linear algebra routines
   Shared memory     :  Shared parallel matrices
   BLAS/LAPACK       :  OpenBLAS 0.3.29  USE64BITINT DYNAMIC_ARCH NO_AFFINITY Zen SINGLE_THREADED
        Core in use  :  Zen
   Copyright (c) 2011-2014, The OpenBLAS Project


  ***********************************
  * Starting time: Thu Apr 30 16:23:49 2026
  * Host name:     e46e9c79961b
  * Process ID:    2599
  * Working dir.:  /workspace/orca_calc_grid5_v9/calc
  ***********************************

NOTE: MaxCore=16000 MB was set to SCF,MP2,MDCI,CIPSI,MRCI,RASCI and CIS
      => If you want to overwrite this, your respective input block should be placed after the MaxCore statement
Your calculation utilizes the atom-pairwise dispersion correction
with the Becke-Johnson damping scheme (D3BJ)


================================================================================

cite the ECPs for I  [Def2-ECP] as follows:
Ce-Yb(ecp-28): M. Dolg, H. Stoll, H.Preuss, J. Chem. Phys., 1989, 90, 1730-1734.
Y-Cd(ecp-28), Hf-Hg(ecp-46): D. Andrae,U. Haeussermann, M. Dolg, H. Stoll, H. Preuss, Theor. Chim. Acta, 1990, 77, 123-141.
In-Sb(ecp-28), Tl-Bi(ecp-46): B. Metz, H. Stoll, M. Dolg, J. Chem. Phys., 2000, 113, 2563-2569.
Te-Xe(ecp-28), Po-Rn(ecp-46): K. A. Peterson, D. Figgen, E. Goll, H. Stoll, M. Dolg, J. Chem. Phys., 2003, 119, 11113-11123.
Rb(ecp-28), Cs(ecp-46): T. Leininger, A. Nicklass, W. Kuechle, H. Stoll, M. Dolg, A. Bergner, Chem. Phys. Lett., 1996, 255, 274-280.
Sr(ecp-28), Ba(ecp-46): M. Kaupp, P. V. Schleyer, H. Stoll and H. Preuss, J. Chem. Phys., 1991, 94, 1360-1366.
La(ecp-46): M. Dolg, H. Stoll, A. Savin, H. Preuss, Theor. Chim. Acta, 1989, 75, 173-194.
Lu(ecp-28): X. Cao, M. Dolg, J. Chem. Phys., 2001, 115, 7348-7355.

ECP parameters for I  [Def2-ECP] have been obtained from:
TURBOMOLE (7.0.2)

----- Orbital basis set information -----
Your calculation utilizes the basis: def2-TZVP
   F. Weigend and R. Ahlrichs, Phys. Chem. Chem. Phys. 7, 3297 (2005).

----- AuxJ basis set information -----
Your calculation utilizes the auxiliary basis: def2/J
   H-Rn: F. Weigend, Phys. Chem. Chem. Phys. 8, 1057 (2006).
   Fr-Lr: K. Eichkorn, F. Weigend, O. Treutler, R. Ahlrichs; Theor. Chem. Acc. 97, 119 (1997).

================================================================================
                                        WARNINGS
                       Please study these warnings very carefully!
================================================================================


================================================================================
                                       INPUT FILE
================================================================================
NAME = cu2i2_veratrole_methoxyO_startA_grid5_sp.inp
|  1> ! B3LYP D3BJ def2-TZVP RIJCOSX def2/J TightSCF SP DefGrid3
|  2> 
|  3> %pal nprocs 4 end
|  4> %maxcore 16000
|  5> %scf
|  6>   SCFMode Direct
|  7> end
|  8> 
|  9> * xyz 0 1
| 10>   Cu     -1.29686700      0.15981600     -0.00000500
| 11>   Cu      0.55957800      1.76786800     -0.00001100
| 12>   I      -1.55628200      3.06165300      0.00056300
| 13>   I       1.16127500     -0.67393500     -0.00057100
| 14>   C      -4.21193200      0.13021500      0.70239900
| 15>   C      -4.21193300      0.13020500     -0.70239000
| 16>   C      -5.35109700      0.50567300      1.39237300
| 17>   C      -5.35109300      0.50565600     -1.39237600
| 18>   C      -6.49884900      0.87506200      0.69144600
| 19>   C      -6.49884700      0.87505400     -0.69145700
| 20>   H      -5.35333000      0.52280000      2.47182800
| 21>   H      -5.35331800      0.52276400     -2.47183300
| 22>   H      -7.38405400      1.16790600      1.23946800
| 23>   H      -7.38405200      1.16789400     -1.23948500
| 24>   O      -3.03237100     -0.24634400      1.29412200
| 25>   O      -3.03236800     -0.24636300     -1.29410000
| 26>   C      -2.87237100     -0.01554300      2.69685900
| 27>   C      -2.87237400     -0.01566300     -2.69684900
| 28>   H      -1.85681200     -0.32194200      2.93056300
| 29>   H      -3.00276600      1.04415200      2.92209500
| 30>   H      -3.58027500     -0.61935400      3.26655100
| 31>   H      -1.85682100     -0.32210300     -2.93053000
| 32>   H      -3.00275000      1.04401900     -2.92215700
| 33>   H      -3.58029100     -0.61949300     -3.26650200
| 34> *
| 35> 
| 36>                          ****END OF INPUT****
================================================================================

                       ****************************
                       * Single Point Calculation *
                       ****************************

---------------------------------
CARTESIAN COORDINATES (ANGSTROEM)
---------------------------------
  Cu    -1.296867    0.159816   -0.000005
  Cu     0.559578    1.767868   -0.000011
  I     -1.556282    3.061653    0.000563
  I      1.161275   -0.673935   -0.000571
  C     -4.211932    0.130215    0.702399
  C     -4.211933    0.130205   -0.702390
  C     -5.351097    0.505673    1.392373
  C     -5.351093    0.505656   -1.392376
  C     -6.498849    0.875062    0.691446
  C     -6.498847    0.875054   -0.691457
  H     -5.353330    0.522800    2.471828
  H     -5.353318    0.522764   -2.471833
  H     -7.384054    1.167906    1.239468
  H     -7.384052    1.167894   -1.239485
  O     -3.032371   -0.246344    1.294122
  O     -3.032368   -0.246363   -1.294100
  C     -2.872371   -0.015543    2.696859
  C     -2.872374   -0.015663   -2.696849
  H     -1.856812   -0.321942    2.930563
  H     -3.002766    1.044152    2.922095
  H     -3.580275   -0.619354    3.266551
  H     -1.856821   -0.322103   -2.930530
  H     -3.002750    1.044019   -2.922157
  H     -3.580291   -0.619493   -3.266502

----------------------------
CARTESIAN COORDINATES (A.U.)
----------------------------
  NO LB      ZA    FRAG     MASS         X           Y           Z
   0 Cu   29.0000    0    63.550   -2.450723    0.302008   -0.000009
   1 Cu   29.0000    0    63.550    1.057449    3.340786   -0.000021
   2 I    25.0000*   0   126.900   -2.940947    5.785686    0.001064
   3 I    25.0000*   0   126.900    2.194492   -1.273553   -0.001079
   4 C     6.0000    0    12.011   -7.959398    0.246071    1.327342
   5 C     6.0000    0    12.011   -7.959400    0.246052   -1.327325
   6 C     6.0000    0    12.011  -10.112108    0.955583    2.631204
   7 C     6.0000    0    12.011  -10.112100    0.955551   -2.631209
   8 C     6.0000    0    12.011  -12.281045    1.653628    1.306644
   9 C     6.0000    0    12.011  -12.281041    1.653612   -1.306664
  10 H     1.0000    0     1.008  -10.116328    0.987949    4.671078
  11 H     1.0000    0     1.008  -10.116305    0.987881   -4.671087
  12 H     1.0000    0     1.008  -13.953840    2.207022    2.342255
  13 H     1.0000    0     1.008  -13.953836    2.207000   -2.342287
  14 O     8.0000    0    15.999   -5.730351   -0.465523    2.445536
  15 O     8.0000    0    15.999   -5.730345   -0.465559   -2.445495
  16 C     6.0000    0    12.011   -5.427995   -0.029372    5.096325
  17 C     6.0000    0    12.011   -5.428000   -0.029599   -5.096306
  18 H     1.0000    0     1.008   -3.508866   -0.608382    5.537961
  19 H     1.0000    0     1.008   -5.674405    1.973161    5.521959
  20 H     1.0000    0     1.008   -6.765739   -1.170409    6.172887
  21 H     1.0000    0     1.008   -3.508883   -0.608686   -5.537899
  22 H     1.0000    0     1.008   -5.674375    1.972910   -5.522076
  23 H     1.0000    0     1.008   -6.765769   -1.170672   -6.172794
* core charge reduced due to ECP

--------------------------------
INTERNAL COORDINATES (ANGSTROEM)
--------------------------------
 Cu     0   0   0     0.000000000000     0.00000000     0.00000000
 Cu     1   0   0     2.456057668860     0.00000000     0.00000000
 I      2   1   0     2.480069252118    72.34363584     0.00000000
 I      2   1   3     2.514844226631    62.94366268   180.00052603
 C      1   2   3     2.998641617907   137.83889531   339.58916661
 C      5   1   2     1.404789000036    76.45317431   105.43175651
 C      5   1   2     1.383737593500   156.12463195   329.14069610
 C      6   5   1     1.383737561533   119.90993202   198.82360561
 C      7   5   1     1.394661803504   119.91859835   129.59614466
 C      9   7   5     1.382903000025   120.17055712   359.59866161
 H      7   5   1     1.079593172192   120.30309102   310.15250093
 H      8   6   5     1.079594854164   120.30294880   179.04352243
 H      9   7   5     1.081514499600   119.38223673   180.05856857
 H     10   9   7     1.081516456837   120.44553546   180.46495039
 O      5   1   2     1.372332664455    42.95703931   260.88381252
 O      6   5   1     1.372332966867   115.54197468    18.28702069
 C     15   5   1     1.430573379023   118.33681985   141.09416457
 C     16   6   5     1.430568183288   118.33753483   192.30954458
 H     17  15   5     1.086212681429   105.66589884   183.79004098
 H     17  15   5     1.091186329069   110.22519687   302.54290416
 H     17  15   5     1.090992562670   110.49681894    65.11685151
 H     18  16   6     1.086213689460   105.66536693   176.21268535
 H     18  16   6     1.091186298193   110.22517614    57.45968813
 H     18  16   6     1.090991149459   110.49735160   294.88589096

---------------------------
INTERNAL COORDINATES (A.U.)
---------------------------
 Cu     0   0   0     0.000000000000     0.00000000     0.00000000
 Cu     1   0   0     4.641276363262     0.00000000     0.00000000
 I      2   1   0     4.686651679662    72.34363584     0.00000000
 I      2   1   3     4.752366857805    62.94366268   180.00052603
 C      1   2   3     5.666611431622   137.83889531   339.58916661
 C      5   1   2     2.654666486013    76.45317431   105.43175651
 C      5   1   2     2.614885092926   156.12463195   329.14069610
 C      6   5   1     2.614885032517   119.90993202   198.82360561
 C      7   5   1     2.635528858064   119.91859835   129.59614466
 C      9   7   5     2.613307939825   120.17055712   359.59866161
 H      7   5   1     2.040135431494   120.30309102   310.15250093
 H      8   6   5     2.040138609961   120.30294880   179.04352243
 H      9   7   5     2.043766214109   119.38223673   180.05856857
 H     10   9   7     2.043769912751   120.44553546   180.46495039
 O      5   1   2     2.593332900455    42.95703931   260.88381252
 O      6   5   1     2.593333471930   115.54197468    18.28702069
 C     15   5   1     2.703391900832   118.33681985   141.09416457
 C     16   6   5     2.703382082316   118.33753483   192.30954458
 H     17  15   5     2.052644491094   105.66589884   183.79004098
 H     17  15   5     2.062043323018   110.22519687   302.54290416
 H     17  15   5     2.061677157591   110.49681894    65.11685151
 H     18  16   6     2.052646395995   105.66536693   176.21268535
 H     18  16   6     2.062043264672   110.22517614    57.45968813
 H     18  16   6     2.061674487010   110.49735160   294.88589096

---------------------
BASIS SET INFORMATION
---------------------
There are 5 groups of distinct atoms

 Group   1 Type Cu  : 17s11p7d1f contracted to 6s4p4d1f pattern {842111/6311/4111/1}
 Group   2 Type I   : 11s10p8d2f contracted to 6s5p3d2f pattern {521111/34111/611/11}
 Group   3 Type C   : 11s6p2d1f contracted to 5s3p2d1f pattern {62111/411/11/1}
 Group   4 Type H   : 5s1p contracted to 3s1p pattern {311/1}
 Group   5 Type O   : 11s6p2d1f contracted to 5s3p2d1f pattern {62111/411/11/1}

Atom   0Cu   basis set group =>   1
Atom   1Cu   basis set group =>   1
Atom   2I    basis set group =>   2
Atom   3I    basis set group =>   2
Atom   4C    basis set group =>   3
Atom   5C    basis set group =>   3
Atom   6C    basis set group =>   3
Atom   7C    basis set group =>   3
Atom   8C    basis set group =>   3
Atom   9C    basis set group =>   3
Atom  10H    basis set group =>   4
Atom  11H    basis set group =>   4
Atom  12H    basis set group =>   4
Atom  13H    basis set group =>   4
Atom  14O    basis set group =>   5
Atom  15O    basis set group =>   5
Atom  16C    basis set group =>   3
Atom  17C    basis set group =>   3
Atom  18H    basis set group =>   4
Atom  19H    basis set group =>   4
Atom  20H    basis set group =>   4
Atom  21H    basis set group =>   4
Atom  22H    basis set group =>   4
Atom  23H    basis set group =>   4
---------------------------------
AUXILIARY/J BASIS SET INFORMATION
---------------------------------
There are 5 groups of distinct atoms

 Group   1 Type Cu  : 19s5p5d3f3g contracted to 8s5p4d3f3g pattern {121111111/11111/2111/111/111}
 Group   2 Type I   : 11s5p5d3f1g contracted to 8s4p3d2f1g pattern {41111111/2111/311/21/1}
 Group   3 Type C   : 12s5p4d2f1g contracted to 6s4p3d1f1g pattern {711111/2111/211/2/1}
 Group   4 Type H   : 5s2p1d contracted to 3s1p1d pattern {311/2/1}
 Group   5 Type O   : 12s5p4d2f1g contracted to 6s4p3d1f1g pattern {711111/2111/211/2/1}

Atom   0Cu   basis set group =>   1
Atom   1Cu   basis set group =>   1
Atom   2I    basis set group =>   2
Atom   3I    basis set group =>   2
Atom   4C    basis set group =>   3
Atom   5C    basis set group =>   3
Atom   6C    basis set group =>   3
Atom   7C    basis set group =>   3
Atom   8C    basis set group =>   3
Atom   9C    basis set group =>   3
Atom  10H    basis set group =>   4
Atom  11H    basis set group =>   4
Atom  12H    basis set group =>   4
Atom  13H    basis set group =>   4
Atom  14O    basis set group =>   5
Atom  15O    basis set group =>   5
Atom  16C    basis set group =>   3
Atom  17C    basis set group =>   3
Atom  18H    basis set group =>   4
Atom  19H    basis set group =>   4
Atom  20H    basis set group =>   4
Atom  21H    basis set group =>   4
Atom  22H    basis set group =>   4
Atom  23H    basis set group =>   4
-------------------------
ECP PARAMETER INFORMATION
-------------------------

 Group 1, Type I  ECP Def2-ECP (replacing 28 core electrons, lmax=3)

Atom   2I    ECP group =>   1
Atom   3I    ECP group =>   1



           ************************************************************
           *        Program running with 4 parallel MPI-processes     *
           *              working on a common directory               *
           ************************************************************
------------------------------------------------------------------------------
                             ORCA STARTUP CALCULATIONS
                           -- RI-GTO INTEGRALS CHOSEN --
------------------------------------------------------------------------------
------------------------------------------------------------------------------
                   ___                                                        
                  /   \      - P O W E R E D   B Y -                         
                 /     \                                                     
                 |  |  |   _    _      __       _____    __    __             
                 |  |  |  | |  | |    /  \     |  _  \  |  |  /  |          
                  \  \/   | |  | |   /    \    | | | |  |  | /  /          
                 / \  \   | |__| |  /  /\  \   | |_| |  |  |/  /          
                |  |  |   |  __  | /  /__\  \  |    /   |      \           
                |  |  |   | |  | | |   __   |  |    \   |  |\   \          
                \     /   | |  | | |  |  |  |  | |\  \  |  | \   \       
                 \___/    |_|  |_| |__|  |__|  |_| \__\ |__|  \__/        
                                                                              
                      - O R C A' S   B I G   F R I E N D -                    
                                      &                                       
                       - I N T E G R A L  F E E D E R -                       
                                                                              
 v1 FN, 2020, v2 2021, v3 2022-2024                                           
------------------------------------------------------------------------------


----------------------
SHARK INTEGRAL PACKAGE
----------------------

Number of atoms                             ...     24
Number of basis functions                   ...    560
Number of shells                            ...    212
Maximum angular momentum                    ...      3
Integral batch strategy                     ... SHARK/LIBINT Hybrid
RI-J (if used) integral strategy            ... SPLIT-RIJ (Revised 2003 algorithm where possible)
Printlevel                                  ...      1
Contraction scheme used                     ... SEGMENTED contraction
Prescreening option                         ... SCHWARTZ
   Thresh                                   ... 2.500e-11
   Tcut                                     ... 2.500e-12
   Tpresel                                  ... 2.500e-12 
Coulomb Range Separation                    ... NOT USED
Exchange Range Separation                   ... NOT USED
Multipole approximations                    ... NOT USED
Finite Nucleus Model                        ... NOT USED
CABS basis                                  ... NOT available
Auxiliary Coulomb fitting basis             ... AVAILABLE
   # of basis functions in Aux-J            ...    898
   # of shells in Aux-J                     ...    282
   Maximum angular momentum in Aux-J        ...      4
Auxiliary J/K fitting basis                 ... NOT available
Auxiliary Correlation fitting basis         ... NOT available
Auxiliary 'external' fitting basis          ... NOT available

Checking pre-screening integrals            ... done (  0.0 sec) Dimension = 212
   => SHARK Basis and OBASIS are compatible. Storing Pre-screening
Shell pair information
Shell pair cut-off parameter TPreSel        ...   2.5e-12
Total number of shell pairs                 ...     22578
Shell pairs after pre-screening             ...     17522
Total number of primitive shell pairs       ...     78253
Primitive shell pairs kept                  ...     39472
          la=0 lb=0:   4084 shell pairs
          la=1 lb=0:   4708 shell pairs
          la=1 lb=1:   1404 shell pairs
          la=2 lb=0:   2785 shell pairs
          la=2 lb=1:   1643 shell pairs
          la=2 lb=2:    505 shell pairs
          la=3 lb=0:   1164 shell pairs
          la=3 lb=1:    702 shell pairs
          la=3 lb=2:    429 shell pairs
          la=3 lb=3:     98 shell pairs

Checking whether 4 symmetric matrices of dimension 560 fit in memory
:Max Core in MB      =  16000.00
 MB in use           =     25.74
 MB left             =  15974.26
 MB needed           =      4.79
 Data fit in memory  = YES
Calculating RI/J V-Matrix + Cholesky decomp.... done (  0.1 sec)
Calculating Nuclear repulsion               ... done (  0.0 sec) ENN=   2319.600649463719 Eh

Diagonalization of the overlap matrix:
Smallest eigenvalue                        ... 7.284e-06
Time for diagonalization                   ...    0.042 sec
Threshold for overlap eigenvalues          ... 1.000e-07
Number of eigenvalues below threshold      ... 0
Time for construction of square roots      ...    0.036 sec
Total time needed                          ...    0.093 sec

-------------------
DFT GRID GENERATION
-------------------

General Integration Accuracy     IntAcc      ... 4.959
Radial Grid Type                 RadialGrid  ... OptM3 with GC (2021)
Angular Grid (max. ang.)         AngularGrid ... 6 (Lebedev-590)
Angular grid pruning method      GridPruning ... 4 (adaptive)
Weight generation scheme         WeightScheme... mBecke (2022)
Basis function cutoff            BFCut       ... 1.0000e-11
Integration weight cutoff        WCut        ... 1.0000e-14
Partially contracted basis set               ... off
Rotationally invariant grid construction     ... off
Angular grids for H and He will be reduced by one unit
Core-polarized basis detected: some atoms will have their core
                               angular grid increased.

Total number of grid points                  ...   330952
Total number of batches                      ...     5184
Average number of points per batch           ...       63
Average number of grid points per atom       ...    13790

--------------------
COSX GRID GENERATION
--------------------

GRIDX 1
-------
General Integration Accuracy     IntAcc      ... 4.020
Radial Grid Type                 RadialGrid  ... OptM3 with GC (2021)
Angular Grid (max. ang.)         AngularGrid ... 2 (Lebedev-110)
Angular grid pruning method      GridPruning ... 4 (adaptive)
Weight generation scheme         WeightScheme... mBecke (2022)
Basis function cutoff            BFCut       ... 1.0000e-11
Integration weight cutoff        WCut        ... 1.0000e-14
Partially contracted basis set               ... on
Rotationally invariant grid construction     ... off
Angular grids for H and He will be reduced by one unit
Core-polarized basis detected: some atoms will have their core
                               angular grid increased.

Total number of grid points                  ...    48248
Total number of batches                      ...      390
Average number of points per batch           ...      123
Average number of grid points per atom       ...     2010
UseSFitting                                  ... on

GRIDX 2
-------
General Integration Accuracy     IntAcc      ... 4.338
Radial Grid Type                 RadialGrid  ... OptM3 with GC (2021)
Angular Grid (max. ang.)         AngularGrid ... 3 (Lebedev-194)
Angular grid pruning method      GridPruning ... 4 (adaptive)
Weight generation scheme         WeightScheme... mBecke (2022)
Basis function cutoff            BFCut       ... 1.0000e-11
Integration weight cutoff        WCut        ... 1.0000e-14
Partially contracted basis set               ... on
Rotationally invariant grid construction     ... off
Angular grids for H and He will be reduced by one unit
Core-polarized basis detected: some atoms will have their core
                               angular grid increased.

Total number of grid points                  ...    78058
Total number of batches                      ...      620
Average number of points per batch           ...      125
Average number of grid points per atom       ...     3252
UseSFitting                                  ... on

GRIDX 3
-------
General Integration Accuracy     IntAcc      ... 4.871
Radial Grid Type                 RadialGrid  ... OptM3 with GC (2021)
Angular Grid (max. ang.)         AngularGrid ... 4 (Lebedev-302)
Angular grid pruning method      GridPruning ... 4 (adaptive)
Weight generation scheme         WeightScheme... mBecke (2022)
Basis function cutoff            BFCut       ... 1.0000e-11
Integration weight cutoff        WCut        ... 1.0000e-14
Partially contracted basis set               ... on
Rotationally invariant grid construction     ... off
Angular grids for H and He will be reduced by one unit
Core-polarized basis detected: some atoms will have their core
                               angular grid increased.

Total number of grid points                  ...   146673
Total number of batches                      ...     1158
Average number of points per batch           ...      126
Average number of grid points per atom       ...     6111
UseSFitting                                  ... on
Grids setup in   7.7 sec
Initializing property integral containers    ... done (  0.0 sec)

SHARK setup successfully completed in   9.1 seconds

Maximum memory used throughout the entire STARTUP-calculation: 114.1 MB


           ************************************************************
           *        Program running with 4 parallel MPI-processes     *
           *              working on a common directory               *
           ************************************************************
-------------------------------------------------------------------------------
                                 ORCA GUESS
                   Start orbitals & Density for SCF / CASSCF
-------------------------------------------------------------------------------

------------
SCF SETTINGS
------------
Hamiltonian:
 Density Functional     Method          .... DFT(GTOs)
 Exchange Functional    Exchange        .... B88
   X-Alpha parameter    XAlpha          ....  0.666667
   Becke's b parameter  XBeta           ....  0.004200
 Correlation Functional Correlation     .... LYP
 LDA part of GGA corr.  LDAOpt          .... VWN-5
 Gradients option       PostSCFGGA      .... off
 Hybrid DFT is turned on
   Fraction HF Exchange ScalHFX         ....  0.200000
   Scaling of DF-GGA-X  ScalDFX         ....  0.720000
   Scaling of DF-GGA-C  ScalDFC         ....  0.810000
   Scaling of DF-LDA-C  ScalLDAC        ....  1.000000
   Perturbative correction              ....  0.000000
   NL short-range parameter             ....  4.800000
 RI-approximation to the Coulomb term is turned on
   Number of AuxJ basis functions       .... 898
   RIJ-COSX (HFX calculated with COS-X)).... on


General Settings:
 Integral files         IntName         .... cu2i2_veratrole_methoxyO_startA_grid5_sp
 Hartree-Fock type      HFTyp           .... RHF
 Total Charge           Charge          ....    0
 Multiplicity           Mult            ....    1
 Number of Electrons    NEL             ....  182
 Basis Dimension        Dim             ....  560
 Nuclear Repulsion      ENuc            ....   2319.6006494637 Eh

Convergence Acceleration:
 AO-DIIS                CNVDIIS         .... on
   Start iteration      DIISMaxIt       ....    12
   Startup error        DIISStart       ....  0.200000
   # of expansion vecs  DIISMaxEq       ....     5
   Bias factor          DIISBfac        ....   1.050
   Max. coefficient     DIISMaxC        ....  10.000
 MO-DIIS                CNVKDIIS        .... off
 Trust-Rad. Augm. Hess. CNVTRAH         .... auto
   Auto Start mean grad. ratio tolernc. ....  1.125000
   Auto Start start iteration           ....    50
   Auto Start num. interpolation iter.  ....    10
   Max. Number of Micro iterations      ....    24
   Max. Number of Macro iterations      .... Maxiter - #DIIS iter
   Number of Davidson start vectors     ....     2
   Converg. threshold    (grad. norm)   ....   1.000e-05
   Grad. Scal. Fac. for Micro threshold ....   0.100
   Minimum threshold for Micro iter.    ....   1.000e-02
   NR start threshold (gradient norm)   ....   1.000e-04
   Initial trust radius                 ....   0.400
   Minimum AH scaling param. (alpha)    ....   1.000
   Maximum AH scaling param. (alpha)    .... 1000.000
   Quad. conv. algorithm                .... NR
   White noise on init. David. guess    .... on
   Maximum white noise                  ....   0.010
   Pseudo random numbers                .... off
   Inactive MOs                         .... canonical
   Orbital update algorithm             .... Taylor
   Preconditioner                       .... Diag
   Full preconditioner red. dimension   ....   250
 SOSCF                 CNVSOSCF           .... on
   Start iteration     SOSCFMaxIt         ....   150
   Startup grad/error  SOSCFStart         ....  0.003300
   Hessian update      SOSCFHessUp        .... L-BFGS
   Autom. constraints  SOSCFAutoConstrain .... off
 Level Shifting         CNVShift        .... on
   Level shift para.    LevelShift      ....    0.2500
   Turn off err/grad.   ShiftErr        ....    0.0010
 Zerner damping         CNVZerner       .... off
 Static damping         CNVDamp         .... on
   Fraction old density DampFac         ....    0.7000
   Max. Damping (<1)    DampMax         ....    0.9800
   Min. Damping (>=0)   DampMin         ....    0.0000
   Turn off err/grad.   DampErr         ....    0.1000

SCF Procedure:
 Maximum # iterations   MaxIter         ....   125
 SCF integral mode      SCFMode         .... Direct
   Integral package                     .... SHARK and LIBINT hybrid scheme
 Reset frequency        DirectResetFreq ....    20
 Integral Threshold     Thresh          ....  2.500e-11 Eh
 Primitive CutOff       TCut            ....  2.500e-12 Eh

Convergence Tolerance:
 Convergence Check Mode ConvCheckMode   .... Total+1el-Energy
 Convergence forced     ConvForced      .... 0
 Energy Change          TolE            ....  1.000e-08 Eh
 1-El. energy change                    ....  1.000e-05 Eh
 Orbital Gradient       TolG            ....  1.000e-05
 Orbital Rotation angle TolX            ....  1.000e-05
 DIIS Error             TolErr          ....  5.000e-07

------------------------------
INITIAL GUESS: MODEL POTENTIAL
------------------------------
Loading Hartree-Fock densities                     ... done
Atomic calculation to generate a density for atom 2 (I  with ECP)
  Multiplicity assumed   :    2
  Atomic configuration   : 1s2 2s2 2p6 3s2 3p6 4s2 3d10 4p6 5s2 4d10 5p5 
  Number of open shells  : 1
  Command: /workspace/orca_6_1_1/orca cu2i2_veratrole_methoxyO_startA_grid5_sp_atom53.inp "" > cu2i2_veratrole_methoxyO_startA_grid5_sp_atom53.out
Returned from the atomic calculation with res=0
Calculating cut-offs                               ... done
Initializing the effective Hamiltonian             ... done
Setting up the integral package (SHARK)            ... done
Starting the Coulomb interaction                   ... done (   0.5 sec)
Making the grid                                    ... done (   0.4 sec)
Mapping shells                                     ... done
Starting the XC term evaluation                    ... done (   0.3 sec)
  promolecular density results
     # of electrons  =    237.997533547
     EX              =   -540.088979836
     EC              =    -10.695185185
     EX+EC           =   -550.784165021
Transforming the Hamiltonian                       ... done (   0.0 sec)
Diagonalizing the Hamiltonian                      ... done (   0.0 sec)
Back transforming the eigenvectors                 ... done (   0.0 sec)
Now organizing SCF variables                       ... done
                      ------------------
                      INITIAL GUESS DONE (   6.3 sec)
                      ------------------
             **** ENERGY FILE WAS UPDATED (cu2i2_veratrole_methoxyO_startA_grid5_sp.en.tmp) ****
Finished Guess after   6.8 sec
Maximum memory used throughout the entire GUESS-calculation: 43.1 MB


           ************************************************************
           *        Program running with 4 parallel MPI-processes     *
           *              working on a common directory               *
           ************************************************************

-------------------------------------------------------------------------------------------
                                      ORCA LEAN-SCF
                              memory conserving SCF solver
-------------------------------------------------------------------------------------------

----------------------------------------D-I-I-S--------------------------------------------
Iteration    Energy (Eh)           Delta-E    RMSDP     MaxDP     DIISErr   Damp  Time(sec)
-------------------------------------------------------------------------------------------
               ***  Starting incremental Fock matrix formation  ***
    1    -4337.3248593206335499     0.00e+00  2.81e-03  8.59e-02  5.83e-01  0.700  19.8
    2    -4337.4938706366156111    -1.69e-01  1.86e-03  5.67e-02  3.94e-01  0.700  11.2
    3    -4337.5682534870584277    -7.44e-02  9.59e-04  3.17e-02  2.67e-01  0.700  10.6
                               ***Turning on AO-DIIS***
    4    -4337.6136315838402879    -4.54e-02  4.51e-04  2.01e-02  1.82e-01  0.700  10.1
    5    -4337.6450008631927631    -3.14e-02  3.19e-04  1.43e-02  1.28e-01  0.700   9.5
    6    -4337.6668897797489990    -2.19e-02  2.37e-04  1.05e-02  9.01e-02  0.700   9.1
    7    -4337.6823213441884945    -1.54e-02  5.94e-04  2.63e-02  6.33e-02  0.000   8.8
    8    -4337.7182790740198470    -3.60e-02  8.67e-05  2.62e-03  4.38e-03  0.000   9.6
    9    -4337.7182180774552762     6.10e-05  4.37e-05  1.64e-03  8.60e-03  0.000   7.9
                              *** Initializing SOSCF ***
---------------------------------------S-O-S-C-F--------------------------------------
Iteration    Energy (Eh)           Delta-E    RMSDP     MaxDP     MaxGrad    Time(sec)
--------------------------------------------------------------------------------------
   10    -4337.7183198544507832    -1.02e-04  1.36e-05  4.52e-04  6.19e-04     7.0
               *** Restarting incremental Fock matrix formation ***
   11    -4337.7183229749562088    -3.12e-06  1.35e-05  2.74e-04  9.38e-05    19.6
   12    -4337.7183220882088790     8.87e-07  6.68e-06  2.16e-04  2.66e-04    10.8
   13    -4337.7183232380484696    -1.15e-06  9.30e-06  2.56e-04  2.67e-05     9.1
   14    -4337.7183231394110408     9.86e-08  3.04e-06  7.68e-05  5.32e-05     9.4
   15    -4337.7183233050482158    -1.66e-07  6.19e-06  1.45e-04  1.12e-05     8.4
   16    -4337.7183232837987816     2.12e-08  2.68e-06  6.26e-05  2.60e-05     8.0
   17    -4337.7183233367459252    -5.29e-08  1.54e-05  4.91e-04  5.47e-06     7.3
   18    -4337.7183233483674485    -1.16e-08  1.58e-06  6.62e-05  1.25e-05     7.7
   19    -4337.7183233496498360    -1.28e-09  7.57e-06  2.51e-04  7.69e-07     6.6
                 **** Energy Check signals convergence ****

               *****************************************************
               *                     SUCCESS                       *
               *           SCF CONVERGED AFTER  19 CYCLES          *
               *****************************************************

Recomputing exchange energy using gridx3       ... done (   30.299 sec)
Old exchange energy                            :    -47.040481168 Eh
New exchange energy                            :    -47.040475121 Eh
Exchange energy change after final integration :      0.000006047 Eh
Total energy after final integration           :  -4337.718317271 Eh
             **** ENERGY FILE WAS UPDATED (cu2i2_veratrole_methoxyO_startA_grid5_sp.en.tmp) ****

----------------
TOTAL SCF ENERGY
----------------

Total Energy       :      -4337.71831727085009 Eh         -118035.31621 eV

Components:
Nuclear Repulsion  :       2319.60064946371858 Eh           63119.54261 eV
Electronic Energy  :      -6657.31897278146334 Eh         -181154.85898 eV
One Electron Energy:     -10866.55660470859766 Eh         -295694.03801 eV
Two Electron Energy:       4209.23763192713432 Eh          114539.17902 eV

Virial components:
Potential Energy   :      -8300.29288999407618 Eh         -225862.45216 eV
Kinetic Energy     :       3962.57457272322654 Eh          107827.13595 eV
Virial Ratio       :          2.09467171851603

DFT components:
N(Alpha)           :       90.999987117236 electrons
N(Beta)            :       90.999987117236 electrons
N(Total)           :      181.999974234473 electrons
E(X)               :     -187.509801159203 Eh       
E(C)               :       -8.504437666986 Eh       
E(XC)              :     -196.014238826190 Eh       

---------------
SCF CONVERGENCE
---------------

  Last Energy change         ...    1.2824e-09  Tolerance :   1.0000e-08
  Last MAX-Density change    ...    2.5107e-04  Tolerance :   1.0000e-07
  Last RMS-Density change    ...    7.5694e-06  Tolerance :   5.0000e-09
  Last DIIS Error            ...    6.1858e-04  Tolerance :   5.0000e-07
  Last Orbital Gradient      ...    7.6884e-07  Tolerance :   1.0000e-05
  Last Orbital Rotation      ...    9.0417e-07  Tolerance :   1.0000e-05


----------------
ORBITAL ENERGIES
----------------

  NO   OCC          E(Eh)            E(eV) 
   0   2.0000    -323.005326     -8789.4218 
   1   2.0000    -322.984660     -8788.8594 
   2   2.0000     -38.799515     -1055.7885 
   3   2.0000     -38.774818     -1055.1164 
   4   2.0000     -34.004101      -925.2986 
   5   2.0000     -34.003866      -925.2922 
   6   2.0000     -34.003809      -925.2907 
   7   2.0000     -33.979574      -924.6312 
   8   2.0000     -33.979537      -924.6302 
   9   2.0000     -33.979275      -924.6231 
  10   2.0000     -19.197298      -522.3850 
  11   2.0000     -19.197287      -522.3847 
  12   2.0000     -10.255330      -279.0617 
  13   2.0000     -10.254830      -279.0481 
  14   2.0000     -10.243568      -278.7417 
  15   2.0000     -10.243563      -278.7415 
  16   2.0000     -10.192610      -277.3550 
  17   2.0000     -10.192586      -277.3544 
  18   2.0000     -10.187113      -277.2054 
  19   2.0000     -10.186513      -277.1891 
  20   2.0000      -6.816084      -185.4751 
  21   2.0000      -6.801168      -185.0692 
  22   2.0000      -4.834733      -131.5598 
  23   2.0000      -4.832700      -131.5044 
  24   2.0000      -4.830468      -131.4437 
  25   2.0000      -4.819982      -131.1584 
  26   2.0000      -4.817279      -131.0848 
  27   2.0000      -4.815878      -131.0467 
  28   2.0000      -4.290302      -116.7450 
  29   2.0000      -4.268758      -116.1588 
  30   2.0000      -2.786052       -75.8123 
  31   2.0000      -2.784671       -75.7748 
  32   2.0000      -2.781861       -75.6983 
  33   2.0000      -2.764112       -75.2153 
  34   2.0000      -2.763088       -75.1874 
  35   2.0000      -2.762610       -75.1744 
  36   2.0000      -1.883735       -51.2590 
  37   2.0000      -1.883165       -51.2435 
  38   2.0000      -1.881231       -51.1909 
  39   2.0000      -1.879297       -51.1383 
  40   2.0000      -1.878991       -51.1300 
  41   2.0000      -1.868762       -50.8516 
  42   2.0000      -1.867903       -50.8282 
  43   2.0000      -1.866758       -50.7971 
  44   2.0000      -1.864277       -50.7295 
  45   2.0000      -1.864110       -50.7250 
  46   2.0000      -1.110151       -30.2087 
  47   2.0000      -1.088876       -29.6298 
  48   2.0000      -0.875358       -23.8197 
  49   2.0000      -0.789609       -21.4863 
  50   2.0000      -0.771934       -21.0054 
  51   2.0000      -0.731098       -19.8942 
  52   2.0000      -0.714188       -19.4340 
  53   2.0000      -0.667829       -18.1726 
  54   2.0000      -0.651593       -17.7307 
  55   2.0000      -0.625740       -17.0273 
  56   2.0000      -0.619966       -16.8701 
  57   2.0000      -0.571496       -15.5512 
  58   2.0000      -0.534989       -14.5578 
  59   2.0000      -0.530709       -14.4413 
  60   2.0000      -0.506075       -13.7710 
  61   2.0000      -0.491452       -13.3731 
  62   2.0000      -0.479921       -13.0593 
  63   2.0000      -0.477905       -13.0045 
  64   2.0000      -0.462542       -12.5864 
  65   2.0000      -0.440278       -11.9806 
  66   2.0000      -0.414023       -11.2661 
  67   2.0000      -0.405515       -11.0346 
  68   2.0000      -0.403981       -10.9929 
  69   2.0000      -0.371002       -10.0955 
  70   2.0000      -0.370685       -10.0869 
  71   2.0000      -0.361693        -9.8422 
  72   2.0000      -0.350667        -9.5421 
  73   2.0000      -0.332660        -9.0521 
  74   2.0000      -0.318714        -8.6726 
  75   2.0000      -0.308259        -8.3882 
  76   2.0000      -0.294775        -8.0212 
  77   2.0000      -0.288351        -7.8464 
  78   2.0000      -0.285257        -7.7622 
  79   2.0000      -0.270788        -7.3685 
  80   2.0000      -0.267627        -7.2825 
  81   2.0000      -0.260446        -7.0871 
  82   2.0000      -0.259615        -7.0645 
  83   2.0000      -0.256566        -6.9815 
  84   2.0000      -0.254106        -6.9146 
  85   2.0000      -0.252854        -6.8805 
  86   2.0000      -0.239091        -6.5060 
  87   2.0000      -0.233617        -6.3570 
  88   2.0000      -0.223991        -6.0951 
  89   2.0000      -0.221428        -6.0254 
  90   2.0000      -0.217322        -5.9136 
  91   0.0000      -0.039501        -1.0749 
  92   0.0000      -0.024443        -0.6651 
  93   0.0000      -0.016852        -0.4586 
  94   0.0000      -0.012219        -0.3325 
  95   0.0000       0.022534         0.6132 
  96   0.0000       0.025862         0.7037 
  97   0.0000       0.038963         1.0602 
  98   0.0000       0.040991         1.1154 
  99   0.0000       0.058018         1.5787 
 100   0.0000       0.062542         1.7019 
 101   0.0000       0.064571         1.7571 
*Only the first 10 virtual orbitals were printed.

                    ********************************
                    * MULLIKEN POPULATION ANALYSIS *
                    ********************************

-----------------------
MULLIKEN ATOMIC CHARGES
-----------------------
   0 Cu:    0.227670
   1 Cu:    0.131827
   2 I :   -0.356161
   3 I :   -0.240490
   4 C :    0.309585
   5 C :    0.309583
   6 C :   -0.203012
   7 C :   -0.202988
   8 C :   -0.132815
   9 C :   -0.132837
  10 H :    0.123480
  11 H :    0.123485
  12 H :    0.112259
  13 H :    0.112264
  14 O :   -0.306528
  15 O :   -0.306536
  16 C :   -0.208904
  17 C :   -0.208911
  18 H :    0.146487
  19 H :    0.150858
  20 H :    0.127166
  21 H :    0.146505
  22 H :    0.150847
  23 H :    0.127166
Sum of atomic charges:    0.0000000

--------------------------------
MULLIKEN REDUCED ORBITAL CHARGES
--------------------------------
  0 Cus       :     6.494784  s :     6.494784
      pz      :     4.063814  p :    12.334204
      px      :     4.162400
      py      :     4.107990
      dz2     :     1.999548  d :     9.943270
      dxz     :     2.005880
      dyz     :     1.998101
      dx2y2   :     1.972316
      dxy     :     1.967425
      f0      :     0.000008  f :     0.000072
      f+1     :     0.000009
      f-1     :     0.000003
      f+2     :     0.000019
      f-2     :     0.000009
      f+3     :     0.000012
      f-3     :     0.000012

  1 Cus       :     6.626332  s :     6.626332
      pz      :     4.050446  p :    12.345364
      px      :     4.130076
      py      :     4.164842
      dz2     :     1.982936  d :     9.896420
      dxz     :     1.992315
      dyz     :     1.991716
      dx2y2   :     1.991635
      dxy     :     1.937818
      f0      :     0.000005  f :     0.000056
      f+1     :     0.000007
      f-1     :     0.000008
      f+2     :     0.000004
      f-2     :     0.000005
      f+3     :     0.000015
      f-3     :     0.000012

  2 I s       :     3.945983  s :     3.945983
      pz      :     3.952499  p :    11.369846
      px      :     3.672737
      py      :     3.744610
      dz2     :     2.002424  d :    10.034265
      dxz     :     2.005370
      dyz     :     2.005910
      dx2y2   :     2.010957
      dxy     :     2.009604
      f0      :     0.000657  f :     0.006067
      f+1     :     0.000660
      f-1     :     0.000504
      f+2     :     0.000444
      f-2     :     0.000712
      f+3     :     0.001622
      f-3     :     0.001467

  3 I s       :     3.929012  s :     3.929012
      pz      :     3.948468  p :    11.260374
      px      :     3.686001
      py      :     3.625905
      dz2     :     2.002934  d :    10.043105
      dxz     :     2.007537
      dyz     :     2.008061
      dx2y2   :     2.009787
      dxy     :     2.014786
      f0      :     0.000908  f :     0.007999
      f+1     :     0.000671
      f-1     :     0.000883
      f+2     :     0.000980
      f-2     :     0.000615
      f+3     :     0.002014
      f-3     :     0.001929

  4 C s       :     3.112657  s :     3.112657
      pz      :     0.796662  p :     2.408378
      px      :     0.671624
      py      :     0.940092
      dz2     :     0.031901  d :     0.153691
      dxz     :     0.032561
      dyz     :     0.028369
      dx2y2   :     0.026037
      dxy     :     0.034823
      f0      :     0.001419  f :     0.015689
      f+1     :     0.004363
      f-1     :     0.001811
      f+2     :     0.001851
      f-2     :     0.001910
      f+3     :     0.002347
      f-3     :     0.001988

  5 C s       :     3.112670  s :     3.112670
      pz      :     0.796635  p :     2.408369
      px      :     0.671631
      py      :     0.940103
      dz2     :     0.031899  d :     0.153690
      dxz     :     0.032561
      dyz     :     0.028369
      dx2y2   :     0.026038
      dxy     :     0.034823
      f0      :     0.001419  f :     0.015689
      f+1     :     0.004363
      f-1     :     0.001811
      f+2     :     0.001851
      f-2     :     0.001910
      f+3     :     0.002347
      f-3     :     0.001988

  6 C s       :     3.238646  s :     3.238646
      pz      :     0.965631  p :     2.884795
      px      :     0.900817
      py      :     1.018347
      dz2     :     0.015275  d :     0.072123
      dxz     :     0.016388
      dyz     :     0.005840
      dx2y2   :     0.014746
      dxy     :     0.019874
      f0      :     0.001077  f :     0.007448
      f+1     :     0.001588
      f-1     :     0.000322
      f+2     :     0.000991
      f-2     :     0.001123
      f+3     :     0.001312
      f-3     :     0.001035

  7 C s       :     3.238611  s :     3.238611
      pz      :     0.965632  p :     2.884803
      px      :     0.900820
      py      :     1.018350
      dz2     :     0.015275  d :     0.072125
      dxz     :     0.016389
      dyz     :     0.005840
      dx2y2   :     0.014747
      dxy     :     0.019874
      f0      :     0.001077  f :     0.007448
      f+1     :     0.001588
      f-1     :     0.000322
      f+2     :     0.000991
      f-2     :     0.001123
      f+3     :     0.001312
      f-3     :     0.001035

  8 C s       :     3.212882  s :     3.212882
      pz      :     0.917456  p :     2.832940
      px      :     0.938709
      py      :     0.976774
      dz2     :     0.017092  d :     0.079550
      dxz     :     0.024807
      dyz     :     0.019445
      dx2y2   :     0.008792
      dxy     :     0.009414
      f0      :     0.000915  f :     0.007444
      f+1     :     0.002028
      f-1     :     0.001525
      f+2     :     0.000687
      f-2     :     0.000571
      f+3     :     0.000933
      f-3     :     0.000785

  9 C s       :     3.212868  s :     3.212868
      pz      :     0.917458  p :     2.832974
      px      :     0.938748
      py      :     0.976768
      dz2     :     0.017092  d :     0.079551
      dxz     :     0.024807
      dyz     :     0.019445
      dx2y2   :     0.008793
      dxy     :     0.009414
      f0      :     0.000915  f :     0.007444
      f+1     :     0.002028
      f-1     :     0.001525
      f+2     :     0.000687
      f-2     :     0.000571
      f+3     :     0.000933
      f-3     :     0.000785

 10 H s       :     0.853442  s :     0.853442
      pz      :     0.014091  p :     0.023078
      px      :     0.003852
      py      :     0.005135

 11 H s       :     0.853437  s :     0.853437
      pz      :     0.014091  p :     0.023078
      px      :     0.003852
      py      :     0.005135

 12 H s       :     0.865238  s :     0.865238
      pz      :     0.006157  p :     0.022503
      px      :     0.010723
      py      :     0.005624

 13 H s       :     0.865233  s :     0.865233
      pz      :     0.006157  p :     0.022503
      px      :     0.010723
      py      :     0.005623

 14 O s       :     3.776407  s :     3.776407
      pz      :     1.312901  p :     4.487241
      px      :     1.432561
      py      :     1.741779
      dz2     :     0.011355  d :     0.040847
      dxz     :     0.009697
      dyz     :     0.007161
      dx2y2   :     0.006212
      dxy     :     0.006423
      f0      :     0.000449  f :     0.002033
      f+1     :     0.000410
      f-1     :     0.000267
      f+2     :     0.000259
      f-2     :     0.000167
      f+3     :     0.000239
      f-3     :     0.000243

 15 O s       :     3.776413  s :     3.776413
      pz      :     1.312897  p :     4.487242
      px      :     1.432559
      py      :     1.741786
      dz2     :     0.011355  d :     0.040848
      dxz     :     0.009697
      dyz     :     0.007161
      dx2y2   :     0.006212
      dxy     :     0.006423
      f0      :     0.000449  f :     0.002033
      f+1     :     0.000410
      f-1     :     0.000267
      f+2     :     0.000259
      f-2     :     0.000167
      f+3     :     0.000239
      f-3     :     0.000243

 16 C s       :     3.282741  s :     3.282741
      pz      :     0.657808  p :     2.832830
      px      :     1.104886
      py      :     1.070136
      dz2     :     0.018654  d :     0.085397
      dxz     :     0.024262
      dyz     :     0.029518
      dx2y2   :     0.008585
      dxy     :     0.004377
      f0      :     0.002454  f :     0.007936
      f+1     :     0.001919
      f-1     :     0.002346
      f+2     :     0.000070
      f-2     :     0.000244
      f+3     :     0.000242
      f-3     :     0.000660

 17 C s       :     3.282748  s :     3.282748
      pz      :     0.657795  p :     2.832830
      px      :     1.104899
      py      :     1.070136
      dz2     :     0.018654  d :     0.085397
      dxz     :     0.024263
      dyz     :     0.029520
      dx2y2   :     0.008583
      dxy     :     0.004376
      f0      :     0.002454  f :     0.007936
      f+1     :     0.001919
      f-1     :     0.002346
      f+2     :     0.000070
      f-2     :     0.000244
      f+3     :     0.000242
      f-3     :     0.000660

 18 H s       :     0.832377  s :     0.832377
      pz      :     0.003406  p :     0.021136
      px      :     0.012672
      py      :     0.005058

 19 H s       :     0.828658  s :     0.828658
      pz      :     0.003293  p :     0.020484
      px      :     0.004181
      py      :     0.013010

 20 H s       :     0.852401  s :     0.852401
      pz      :     0.005784  p :     0.020432
      px      :     0.007730
      py      :     0.006918

 21 H s       :     0.832360  s :     0.832360
      pz      :     0.003406  p :     0.021136
      px      :     0.012672
      py      :     0.005058

 22 H s       :     0.828669  s :     0.828669
      pz      :     0.003293  p :     0.020484
      px      :     0.004181
      py      :     0.013010

 23 H s       :     0.852402  s :     0.852402
      pz      :     0.005783  p :     0.020432
      px      :     0.007730
      py      :     0.006919



                     *******************************
                     * LOEWDIN POPULATION ANALYSIS *
                     *******************************

----------------------
LOEWDIN ATOMIC CHARGES
----------------------
   0 Cu:   -0.457801
   1 Cu:   -0.410679
   2 I :    0.155634
   3 I :    0.324250
   4 C :   -0.202491
   5 C :   -0.202486
   6 C :   -0.124395
   7 C :   -0.124397
   8 C :   -0.141892
   9 C :   -0.141893
  10 H :    0.149928
  11 H :    0.149928
  12 H :    0.144833
  13 H :    0.144833
  14 O :    0.295930
  15 O :    0.295933
  16 C :   -0.283881
  17 C :   -0.283879
  18 H :    0.126698
  19 H :    0.118744
  20 H :    0.110817
  21 H :    0.126701
  22 H :    0.118745
  23 H :    0.110818

-------------------------------
LOEWDIN REDUCED ORBITAL CHARGES
-------------------------------
  0 Cus       :     6.372928  s :     6.372928
      pz      :     4.083424  p :    12.453909
      px      :     4.210550
      py      :     4.159935
      dz2     :     2.075608  d :    10.630854
      dxz     :     2.143982
      dyz     :     2.060533
      dx2y2   :     2.178362
      dxy     :     2.172369
      f0      :     0.000013  f :     0.000110
      f+1     :     0.000012
      f-1     :     0.000006
      f+2     :     0.000029
      f-2     :     0.000014
      f+3     :     0.000017
      f-3     :     0.000020

  1 Cus       :     6.492978  s :     6.492978
      pz      :     4.056302  p :    12.477753
      px      :     4.178745
      py      :     4.242705
      dz2     :     2.038730  d :    10.439857
      dxz     :     2.050124
      dyz     :     2.079347
      dx2y2   :     2.136400
      dxy     :     2.135257
      f0      :     0.000007  f :     0.000092
      f+1     :     0.000011
      f-1     :     0.000014
      f+2     :     0.000006
      f-2     :     0.000009
      f+3     :     0.000024
      f-3     :     0.000021

  2 I s       :     3.650435  s :     3.650435
      pz      :     3.829934  p :    11.115198
      px      :     3.633602
      py      :     3.651662
      dz2     :     2.008257  d :    10.067799
      dxz     :     2.008906
      dyz     :     2.007792
      dx2y2   :     2.019796
      dxy     :     2.023047
      f0      :     0.001053  f :     0.010934
      f+1     :     0.001126
      f-1     :     0.000965
      f+2     :     0.000671
      f-2     :     0.001170
      f+3     :     0.002754
      f-3     :     0.003194

  3 I s       :     3.585318  s :     3.585318
      pz      :     3.799342  p :    10.990673
      px      :     3.610060
      py      :     3.581271
      dz2     :     2.008751  d :    10.085196
      dxz     :     2.011862
      dyz     :     2.012681
      dx2y2   :     2.020863
      dxy     :     2.031038
      f0      :     0.001483  f :     0.014563
      f+1     :     0.001197
      f-1     :     0.001464
      f+2     :     0.001760
      f-2     :     0.000919
      f+3     :     0.003995
      f-3     :     0.003745

  4 C s       :     2.700947  s :     2.700947
      pz      :     0.983386  p :     2.760224
      px      :     0.882779
      py      :     0.894059
      dz2     :     0.155179  d :     0.647733
      dxz     :     0.167657
      dyz     :     0.091617
      dx2y2   :     0.114290
      dxy     :     0.118990
      f0      :     0.010409  f :     0.093587
      f+1     :     0.026548
      f-1     :     0.008572
      f+2     :     0.012064
      f-2     :     0.012556
      f+3     :     0.011705
      f-3     :     0.011732

  5 C s       :     2.700946  s :     2.700946
      pz      :     0.983388  p :     2.760221
      px      :     0.882775
      py      :     0.894058
      dz2     :     0.155179  d :     0.647732
      dxz     :     0.167656
      dyz     :     0.091617
      dx2y2   :     0.114290
      dxy     :     0.118991
      f0      :     0.010409  f :     0.093587
      f+1     :     0.026548
      f-1     :     0.008572
      f+2     :     0.012064
      f-2     :     0.012556
      f+3     :     0.011705
      f-3     :     0.011732

  6 C s       :     2.754389  s :     2.754389
      pz      :     0.986627  p :     2.953100
      px      :     1.032113
      py      :     0.934360
      dz2     :     0.111725  d :     0.373151
      dxz     :     0.092653
      dyz     :     0.020658
      dx2y2   :     0.070925
      dxy     :     0.077190
      f0      :     0.004848  f :     0.043754
      f+1     :     0.011608
      f-1     :     0.001333
      f+2     :     0.007631
      f-2     :     0.007981
      f+3     :     0.004991
      f-3     :     0.005364

  7 C s       :     2.754389  s :     2.754389
      pz      :     0.986627  p :     2.953103
      px      :     1.032113
      py      :     0.934363
      dz2     :     0.111725  d :     0.373151
      dxz     :     0.092653
      dyz     :     0.020658
      dx2y2   :     0.070925
      dxy     :     0.077190
      f0      :     0.004848  f :     0.043754
      f+1     :     0.011608
      f-1     :     0.001333
      f+2     :     0.007632
      f-2     :     0.007981
      f+3     :     0.004991
      f-3     :     0.005364

  8 C s       :     2.761058  s :     2.761058
      pz      :     1.050482  p :     2.947021
      px      :     0.990372
      py      :     0.906168
      dz2     :     0.097844  d :     0.389680
      dxz     :     0.144351
      dyz     :     0.072610
      dx2y2   :     0.038940
      dxy     :     0.035936
      f0      :     0.007688  f :     0.044132
      f+1     :     0.014116
      f-1     :     0.006851
      f+2     :     0.004233
      f-2     :     0.003680
      f+3     :     0.003669
      f-3     :     0.003895

  9 C s       :     2.761058  s :     2.761058
      pz      :     1.050482  p :     2.947021
      px      :     0.990372
      py      :     0.906168
      dz2     :     0.097843  d :     0.389681
      dxz     :     0.144351
      dyz     :     0.072610
      dx2y2   :     0.038940
      dxy     :     0.035936
      f0      :     0.007688  f :     0.044132
      f+1     :     0.014116
      f-1     :     0.006851
      f+2     :     0.004233
      f-2     :     0.003680
      f+3     :     0.003669
      f-3     :     0.003895

 10 H s       :     0.789270  s :     0.789270
      pz      :     0.034827  p :     0.060802
      px      :     0.011275
      py      :     0.014700

 11 H s       :     0.789271  s :     0.789271
      pz      :     0.034827  p :     0.060801
      px      :     0.011274
      py      :     0.014700

 12 H s       :     0.796420  s :     0.796420
      pz      :     0.016682  p :     0.058747
      px      :     0.026738
      py      :     0.015327

 13 H s       :     0.796420  s :     0.796420
      pz      :     0.016682  p :     0.058747
      px      :     0.026738
      py      :     0.015327

 14 O s       :     3.214789  s :     3.214789
      pz      :     1.327807  p :     4.369510
      px      :     1.423909
      py      :     1.617793
      dz2     :     0.031785  d :     0.113197
      dxz     :     0.032609
      dyz     :     0.018893
      dx2y2   :     0.015255
      dxy     :     0.014655
      f0      :     0.001146  f :     0.006574
      f+1     :     0.001732
      f-1     :     0.001035
      f+2     :     0.000727
      f-2     :     0.000609
      f+3     :     0.000666
      f-3     :     0.000659

 15 O s       :     3.214786  s :     3.214786
      pz      :     1.327806  p :     4.369508
      px      :     1.423909
      py      :     1.617794
      dz2     :     0.031787  d :     0.113198
      dxz     :     0.032610
      dyz     :     0.018893
      dx2y2   :     0.015254
      dxy     :     0.014655
      f0      :     0.001146  f :     0.006574
      f+1     :     0.001732
      f-1     :     0.001035
      f+2     :     0.000726
      f-2     :     0.000609
      f+3     :     0.000666
      f-3     :     0.000659

 16 C s       :     2.856336  s :     2.856336
      pz      :     0.797100  p :     3.004657
      px      :     1.102536
      py      :     1.105021
      dz2     :     0.111191  d :     0.368864
      dxz     :     0.085146
      dyz     :     0.103941
      dx2y2   :     0.047019
      dxy     :     0.021567
      f0      :     0.016983  f :     0.054024
      f+1     :     0.011563
      f-1     :     0.015377
      f+2     :     0.001797
      f-2     :     0.005033
      f+3     :     0.000942
      f-3     :     0.002329

 17 C s       :     2.856334  s :     2.856334
      pz      :     0.797094  p :     3.004654
      px      :     1.102539
      py      :     1.105021
      dz2     :     0.111192  d :     0.368867
      dxz     :     0.085145
      dyz     :     0.103947
      dx2y2   :     0.047014
      dxy     :     0.021569
      f0      :     0.016983  f :     0.054025
      f+1     :     0.011564
      f-1     :     0.015378
      f+2     :     0.001797
      f-2     :     0.005032
      f+3     :     0.000942
      f-3     :     0.002329

 18 H s       :     0.811852  s :     0.811852
      pz      :     0.009209  p :     0.061450
      px      :     0.036816
      py      :     0.015425

 19 H s       :     0.818900  s :     0.818900
      pz      :     0.009563  p :     0.062356
      px      :     0.013482
      py      :     0.039311

 20 H s       :     0.827665  s :     0.827665
      pz      :     0.016177  p :     0.061517
      px      :     0.024086
      py      :     0.021255

 21 H s       :     0.811848  s :     0.811848
      pz      :     0.009209  p :     0.061451
      px      :     0.036816
      py      :     0.015426

 22 H s       :     0.818900  s :     0.818900
      pz      :     0.009564  p :     0.062355
      px      :     0.013482
      py      :     0.039309

 23 H s       :     0.827665  s :     0.827665
      pz      :     0.016176  p :     0.061518
      px      :     0.024086
      py      :     0.021256



                      *****************************
                      * MAYER POPULATION ANALYSIS *
                      *****************************

  NA   - Mulliken gross atomic population
  ZA   - Total nuclear charge
  QA   - Mulliken gross atomic charge
  VA   - Mayer's total valence
  BVA  - Mayer's bonded valence
  FA   - Mayer's free valence

  ATOM       NA         ZA         QA         VA         BVA        FA
  0 Cu    28.7723    29.0000     0.2277     1.5008     1.5008    -0.0000
  1 Cu    28.8682    29.0000     0.1318     1.6436     1.6436    -0.0000
  2 I     25.3562    25.0000    -0.3562     1.1323     1.1323     0.0000
  3 I     25.2405    25.0000    -0.2405     1.3458     1.3458     0.0000
  4 C      5.6904     6.0000     0.3096     3.7421     3.7421    -0.0000
  5 C      5.6904     6.0000     0.3096     3.7421     3.7421     0.0000
  6 C      6.2030     6.0000    -0.2030     3.9349     3.9349    -0.0000
  7 C      6.2030     6.0000    -0.2030     3.9349     3.9349     0.0000
  8 C      6.1328     6.0000    -0.1328     3.9689     3.9689     0.0000
  9 C      6.1328     6.0000    -0.1328     3.9690     3.9690     0.0000
 10 H      0.8765     1.0000     0.1235     0.9762     0.9762     0.0000
 11 H      0.8765     1.0000     0.1235     0.9762     0.9762     0.0000
 12 H      0.8877     1.0000     0.1123     0.9703     0.9703     0.0000
 13 H      0.8877     1.0000     0.1123     0.9703     0.9703     0.0000
 14 O      8.3065     8.0000    -0.3065     2.0670     2.0670    -0.0000
 15 O      8.3065     8.0000    -0.3065     2.0670     2.0670    -0.0000
 16 C      6.2089     6.0000    -0.2089     3.8315     3.8315     0.0000
 17 C      6.2089     6.0000    -0.2089     3.8315     3.8315     0.0000
 18 H      0.8535     1.0000     0.1465     0.9748     0.9748     0.0000
 19 H      0.8491     1.0000     0.1509     0.9661     0.9661     0.0000
 20 H      0.8728     1.0000     0.1272     0.9565     0.9565     0.0000
 21 H      0.8535     1.0000     0.1465     0.9748     0.9748     0.0000
 22 H      0.8492     1.0000     0.1508     0.9661     0.9661    -0.0000
 23 H      0.8728     1.0000     0.1272     0.9565     0.9565     0.0000

  Mayer bond orders larger than 0.100000
B(  0-Cu,  1-Cu) :   0.1762 B(  0-Cu,  2-I ) :   0.2962 B(  0-Cu,  3-I ) :   0.6023 
B(  0-Cu, 14-O ) :   0.2028 B(  0-Cu, 15-O ) :   0.2028 B(  1-Cu,  2-I ) :   0.7773 
B(  1-Cu,  3-I ) :   0.6837 B(  4-C ,  5-C ) :   1.3078 B(  4-C ,  6-C ) :   1.4017 
B(  4-C , 14-O ) :   0.9333 B(  5-C ,  7-C ) :   1.4017 B(  5-C , 15-O ) :   0.9333 
B(  6-C ,  8-C ) :   1.3895 B(  6-C , 10-H ) :   0.9551 B(  7-C ,  9-C ) :   1.3896 
B(  7-C , 11-H ) :   0.9551 B(  8-C ,  9-C ) :   1.4642 B(  8-C , 12-H ) :   0.9644 
B(  9-C , 13-H ) :   0.9644 B( 14-O , 16-C ) :   0.8993 B( 15-O , 17-C ) :   0.8993 
B( 16-C , 18-H ) :   0.9672 B( 16-C , 19-H ) :   0.9654 B( 16-C , 20-H ) :   0.9627 
B( 17-C , 21-H ) :   0.9672 B( 17-C , 22-H ) :   0.9655 B( 17-C , 23-H ) :   0.9627 


-------
TIMINGS
-------

Total SCF time: 0 days 0 hours 3 min 47 sec 

Total time                  ....     227.414 sec
Sum of individual times     ....     221.157 sec  ( 97.2%)

SCF preparation             ....       0.602 sec  (  0.3%)
Fock matrix formation       ....     216.264 sec  ( 95.1%)
  Startup                   ....       0.105 sec  (  0.0% of F)
  Split-RI-J                ....      12.885 sec  (  6.0% of F)
  Chain of spheres X        ....     181.938 sec  ( 84.1% of F)
  XC integration            ....      25.237 sec  ( 11.7% of F)
    XC Preparation          ....       0.000 sec  (  0.0% of XC)
    Basis function eval.    ....       7.175 sec  ( 28.4% of XC)
    Density eval.           ....       7.752 sec  ( 30.7% of XC)
    XC-Functional eval.     ....       0.596 sec  (  2.4% of XC)
    XC-Potential eval.      ....       7.442 sec  ( 29.5% of XC)
Diagonalization             ....       0.000 sec  (  0.0%)
Density matrix formation    ....       0.708 sec  (  0.3%)
Total Energy calculation    ....       0.186 sec  (  0.1%)
Population analysis         ....       0.106 sec  (  0.0%)
Orbital Transformation      ....       0.273 sec  (  0.1%)
Orbital Orthonormalization  ....       0.000 sec  (  0.0%)
DIIS solution               ....       1.804 sec  (  0.8%)
SOSCF solution              ....       1.215 sec  (  0.5%)
Finished LeanSCF after 227.5 sec

Maximum memory used throughout the entire LEANSCF-calculation: 71.5 MB


-------------------------------------------------------------------------------
                          DFT DISPERSION CORRECTION                            
                                                                               
                              DFTD3 V3.1  Rev 1                                
                          USING Becke-Johnson damping                          
-------------------------------------------------------------------------------
The B3LYP functional is recognized
Active option DFTDOPT                   ...         4   

molecular C6(AA) [au] = 15831.482902 


            DFT-D V3
 parameters
 s6 scaling factor         :     1.0000 
 a1 scaling factor         :     0.3981 
 s8 scaling factor         :     1.9889 
 a2 scaling factor         :     4.4211 
 ad hoc parameters k1-k3   :    16.0000     1.3333    -4.0000 

 Edisp/kcal,au: -41.839842755550  -0.066676026454 
 E6   /kcal   : -16.983861872 
 E8   /kcal   : -24.855980883 
 % E8         :  59.407443352 

-------------------------   ----------------
Dispersion correction           -0.066676026
-------------------------   ----------------


-------------------------   --------------------
FINAL SINGLE POINT ENERGY     -4337.784993297304
-------------------------   --------------------



           ************************************************************
           *        Program running with 4 parallel MPI-processes     *
           *              working on a common directory               *
           ************************************************************

------------------------------------------------------------------------------
                              ORCA PROPERTY CALCULATIONS
------------------------------------------------------------------------------

GBWName                                 ... cu2i2_veratrole_methoxyO_startA_grid5_sp.gbw
Number of atoms                         ...     24
Number of basis functions               ...    560
Max core memory                         ...  16000 MB

Electric properties:
Dipole moment                           ... YES
Quadrupole moment                       ...  NO
Static polarizability (Dipole/Dipole)   ...  NO
Static polarizability (Dipole/Quad.)    ...  NO
Static polarizability (Quad./Quad.)     ...  NO
Static polarizability (Velocity)        ...  NO
Static hyperpolarizability              ...  NO

Atomic electric properties:
Dipole moment                           ...  NO
Quadrupole moment                       ...  NO
Static polarizability                   ...  NO

Choice of electric origin               ... Center of mass
Position of electric origin             ...    -2.517650     1.664346    -0.000006

General magnetic properties:
Magnetizability                         ...  NO

EPR properties:
g-Tensor (aka g-matrix)                 ...  NO
Zero-Field splitting spin-orbit         ...  NO
Zero-field splitting spin-spin          ...  NO
Hyperfine couplings                     ...  NO (   0 nuclei)
Quadrupole couplings                    ...  NO (   0 nuclei)
Contact density                         ...  NO (   0 nuclei)

NMR properties:
Chemical shifts                         ...  NO (   0 nuclei)
Spin-rotation constants                 ...  NO (   0 nuclei)
Spin-spin couplings                     ...  NO (   0 nuclei,    0 pairs)

Choice of magnetic origin               ... GIAO
Position of magnetic origin             ...     0.000000     0.000000     0.000000

Properties with geometric perturbations:
SCF Hessian                             ...  NO
IR spectrum                             ...  NO
VCD spectrum                            ...  NO
X-ray spectroscopy properties:
SCF XES/XAS/RIXS spectra                ...  NO

SCF SOC stabilization energy            ...  NO
Diagonal Born-Oppenheimer correction    ...  NO

-------------
DIPOLE MOMENT
-------------

Method             : SCF
Type of density    : Electron Density
Multiplicity       :   1
Irrep              :   0
Energy             : -4337.7183172708500933 Eh
Basis              : AO
                                X                 Y                 Z
Electronic contribution:    200.243497910      50.594059751      -0.000280740
Nuclear contribution   :   -201.944551454     -51.228309878       0.000205443
                        -----------------------------------------
Total Dipole Moment    :     -1.701053544      -0.634250127      -0.000075297
                        -----------------------------------------
Magnitude (a.u.)       :      1.815449363
Magnitude (Debye)      :      4.614505560



--------------------
Rotational spectrum 
--------------------
 
Rotational constants in cm-1:             0.012016             0.005737             0.004680 
Rotational constants in MHz :           360.238511           172.004772           140.315034 

Dipole components along the rotational axes: 
x,y,z [a.u.] :     1.567530    -0.915809     0.000077 
x,y,z [Debye]:     3.984345    -2.327800     0.000196 

 

Dipole moment calculation done in   0.0 sec 

Maximum memory used throughout the entire PROP-calculation: 44.3 MB

--------------------------------
SUGGESTED CITATIONS FOR THIS RUN
--------------------------------

Below you find a list of papers that are relevant to this ORCA run
We neither can nor want to force you to cite these papers, but we appreciate if you do
You receive ORCA, which is the product of decades of hard work by many enthusiastic individuals, for free
The only thing we kindly ask in return is that you cite our papers,
We deeply appreciate it, if you show your appreciation for ORCA by not just citing the generic ORCA reference.

Please note that relegating all ORCA citations to the supporting information does *not* help us.
SI sections are not indexed - citations you put there will not count into any citation statistics
But we need these citations in order to attract the funding resources that allow us to do what we are doing

Therefore, if you are a happy ORCA user, please consider citing a few of the papers listed below in the main body of your paper

In addition to the list printed below, the program has created the file cu2i2_veratrole_methoxyO_startA_grid5_sp.bibtex that contains the list in bibtex format
You can import this file easily into all common literature databanks and citation aid programs

It goes without saying that in many instances, there are alternative algorithms to achieve similar
results as the ones you have gotten from ORCA. It is, of course, also the case that in some instances
ORCA just re-implements algorithms worked out by others. We are fully aware of that and we are also
fully appreciative of our colleagues work. Hence this citation list should not be read as indicating
that the listed papers, which are focused on our own work, are the only ones worth citing. It simply
meant to make it easier for users to cite ORCA specific papers. It is not a substitute for doing your
own literature research and citing the relevant literature in a scientifically appropriate manner.

List of essential papers. We consider these as the minimum necessary citations

  1. Neese, F.
     Software update: the ORCA program system, version 6.0
     WIRES Comput. Molec. Sci. 2025 15(1), e70019
     doi.org/10.1002/wcms.70019

List of papers to cite with high priority. The work reported in these papers was absolutely
necessary for this run to complete.
Our perspective: the developers of density functionals and basis sets usually get cited in chemistry papers
Good! But without the algorithms to do something with them, the functionals or basis sets would not do anything.
Hence, in our opinion, the algorithm design and method developments papers are equally worthy of getting cited

  1. Neese, F.
     An improvement of the resolution of the identity approximation for the formation of the Coulomb matrix
     J. Comp. Chem. 2003 24(14), 1740-1747
     doi.org/10.1002/jcc.10318
  2. Neese, F.; Wennmohs, F.; Hansen, A.; Becker, U.
     Efficient, approximate and parallel Hartree-Fock and hybrid DFT calculations. A 'chain-of-spheres' algorithm for the Hartree-Fock exchange
     Chem. Phys. 2009 356(1-3), 98-109
     doi.org/10.1016/j.chemphys.2008.10.036
  3. Grimme, S.; Antony, J.; Ehrlich, S.; Krieg, H.
     A consistent and accurate ab initio parametrization of density functional dispersion correction (DFT-D) for the 94 elements H-Pu
     J. Chem. Phys. 2010 132 , 154104
     doi.org/10.1063/1.3382344
  4. Grimme, S.; Ehrlich, S.; Goerigk, L.
     Effect of the damping function in dispersion corrected density functional theory
     J. Comput. Chem. 2011 32(7), 1456-1465
     doi.org/10.1002/jcc.21759
  5. Helmich-Paris, B.; de Souza, B.; Neese, F.; Izsák, R.
     An improved chain of spheres for exchange algorithm
     J. Chem. Phys. 2021 155(10), 104109
     doi.org/10.1063/5.0058766
  6. Neese, F.
     The SHARK Integral Generation and Digestion System
     J. Comp. Chem. 2022 44(3), 381
     doi.org/10.1002/jcc.26942

List of suggested additional citations. These are papers that are important in the 'surrounding' of 
of this run, or papers that preceded the highly important papers. If you like your results we are grateful for a citation.

  1. Izsak, R.; Neese, F.
     An overlap fitted chain of spheres exchange method
     J. Chem. Phys. 2011 135 , 144105
     doi.org/10.1063/1.3646921
  2. Izsak, R.; Hansen, A.; Neese, F.
     The resolution of identity and chain of spheres approximations for the LPNO-CCSD singles Fock term
     Molec. Phys. 2012 110 , 2413-2417
     doi.org/10.1080/00268976.2012.687466
  3. Neese, F.
     The ORCA program system
     WIRES Comput. Molec. Sci. 2012 2(1), 73-78
     doi.org/10.1002/wcms.81
  4. Izsak, R.; Neese, F.; Klopper, W.
     Robust fitting techniques in the chain of spheres approximation to the Fock exchange: The role of the complementary space
     J. Chem. Phys. 2013 139 , 
     doi.org/10.1063/1.4819264
  5. Neese, F.
     Software update: the ORCA program system, version 4.0
     WIRES Comput. Molec. Sci. 2018 8(1), 1-6
     doi.org/10.1002/wcms.1327
  6. Neese, F.; Wennmohs, F.; Becker, U.; Riplinger, C.
     The ORCA quantum chemistry program package
     J. Chem. Phys. 2020 152(22), 224108
     doi.org/10.1063/5.0004608
  7. Neese, F.
     Software update: The ORCA program system—Version 5.0
     WIRES Comput. Molec. Sci. 2022 12(1), e1606
     doi.org/10.1002/wcms.1606

List of optional additional citations

  1. Neese, F.
     Approximate second-order SCF convergence for spin unrestricted wavefunctions
     Chem. Phys. Lett. 2000 325(1-3), 93-98
     doi.org/10.1016/s0009-2614(00)00662-x

Timings for individual modules:

Sum of individual times          ...      245.291 sec (=   4.088 min)
Startup calculation              ...        9.677 sec (=   0.161 min)   3.9 %
SCF iterations                   ...      234.882 sec (=   3.915 min)  95.8 %
Property calculations            ...        0.732 sec (=   0.012 min)   0.3 %
                             ****ORCA TERMINATED NORMALLY****
TOTAL RUN TIME: 0 days 0 hours 4 minutes 6 seconds 501 msec
