
                                 *****************
                                 * O   R   C   A *
                                 *****************

                                            #,                                       
                                            ###                                      
                                            ####                                     
                                            #####                                    
                                            ######                                   
                                           ########,                                 
                                     ,,################,,,,,                         
                               ,,#################################,,                 
                          ,,##########################################,,             
                       ,#########################################, ''#####,          
                    ,#############################################,,   '####,        
                  ,##################################################,,,,####,       
                ,###########''''           ''''###############################       
              ,#####''   ,,,,##########,,,,          '''####'''          '####       
            ,##' ,,,,###########################,,,                        '##       
           ' ,,###''''                  '''############,,,                           
         ,,##''                                '''############,,,,        ,,,,,,###''
      ,#''                                            '''#######################'''  
     '                                                          ''''####''''         
             ,#######,   #######,   ,#######,      ##                                
            ,#'     '#,  ##    ##  ,#'     '#,    #''#        ,####,    ,#,          
            ##       ##  ##   ,#'  ##            #'  '#       #'       ,# #          
            ##       ##  #######   ##           ,######,      #####,      #          
            '#,     ,#'  ##    ##  '#,     ,#' ,#      #,     #,   #      #          
             '#######'   ##     ##  '#######'  #'      '#     '####' #    #          



                #########################################################
                #                        -***-                          #
                #          Department of theory and spectroscopy        #
                #                                                       #
                #                      Frank Neese                      #
                #                                                       #
                #     Directorship, Architecture, Infrastructure        #
                #                    SHARK, DRIVERS                     #
                #        Core code/Algorithms in most modules           #
                #                                                       #
                #        Max Planck Institute fuer Kohlenforschung      #
                #                Kaiser Wilhelm Platz 1                 #
                #                 D-45470 Muelheim/Ruhr                 #
                #                      Germany                          #
                #                                                       #
                #                  All rights reserved                  #
                #                        -***-                          #
                #########################################################


                         Program Version 6.1.1  -  RELEASE   -
                                (GIT: $487d211c$)
                          ($2025-11-21 10:33:24 +0100$)


 With contributions from (in alphabetic order):
[Max-Planck-Institut fuer Kohlenforschung]                               
  Daniel Aravena         : Magnetic Suceptibility                        
  Michael Atanasov       : Ab Initio Ligand Field Theory (pilot matlab implementation)
  Alexander A. Auer      : GIAO ZORA, VPT2 properties, NMR spectrum      
  Ute Becker             : All parallelization in ORCA, NUMFREQ, NUMCALC 
  Giovanni Bistoni       : ED, misc. LED, open-shell LED, HFLD           
  Dmytro Bykov           : pre 5.0 version of the SCF Hessian            
  Marcos Casanova-Páez   : Triplet and SCS-CIS(D). UHF-(DLPNO)-IP/EA/STEOM-CCSD. UHF-CVS-IP/STEOM-CCSD   
  Vijay G. Chilkuri      : MRCI spin determinant printing, contributions to CSF-ICE 
  Pauline Colinet        : FMM embedding                                 
  Dipayan Datta          : RHF DLPNO-CCSD density                        
  Achintya Kumar Dutta   : EOM-CC, STEOM-CC                              
  Nicolas Foglia         : Exact transition moments, OPA infrastructure, MCD improvements    
  Dmitry Ganyushin       : Spin-Orbit,Spin-Spin,Magnetic field MRCI      
  Miquel Garcia-Rates    : C-PCM and meta-GGA Hessian, CCSD/C-PCM, Gaussian charge scheme 
  Tiago L. C. Gouveia    : GS-ROHF, GS-ROCIS                             
  Yang Guo               : DLPNO-NEVPT2, F12-NEVPT2, CIM, IAO-localization        
  Andreas Hansen         : Spin unrestricted coupled pair/coupled cluster methods 
  Ingolf Harden          : AUTO-CI MPn and infrastructure                
  Benjamin Helmich-Paris : MC-RPA, TRAH-(SCF,CASSCF), AVAS, COSX integrals, SCF dyn. polar., MC-PDFT, srDFT 
  Lee Huntington         : MR-EOM, pCC                                   
  Robert Izsak           : Overlap fitted RIJCOSX, COSX-SCS-MP3, EOM     
  Riya Kayal             : Wick's Theorem for AUTO-CI, AUTO-CI UHF-CCSDT 
  Emily Kempfer          : AUTO-CI RHF CISDT and CCSDT, approximate NEVPT4
  Christian Kollmar      : KDIIS, OOCD, Brueckner-CCSD(T), CCSD density, CASPT2, CASPT2-K, improved NEVPT2 
  Axel Koslowski         : Symmetry handling                             
  Simone Kossmann        : meta-GGA functionals, TD-DFT gradient, OOMP2, (MP2 Hessian; deprecated post 5.0) 
  Lucas Lang             : DCDCAS, Hyperfine gauge corrections, ICE-SOC+SSC
  Marvin Lechner         : AUTO-CI (C++ implementation), FIC-MRCC        
  Spencer Leger          : CASSCF response                               
  Dagmar Lenk            : GEPOL surface, SMD, ORCA-2-JSON               
  Dimitrios Liakos       : Extrapolation schemes; Compound Job, Property file
  Dimitrios Manganas     : Further ROCIS development; embedding schemes. LFT, Crystal Embedding 
  Dimitrios Pantazis     : SARC Basis sets                               
  Anastasios Papadopoulos: AUTO-CI, single reference methods and gradients 
  Taras Petrenko         : pre 6.0 DFT Hessian and TD-DFT gradient,  ECA, NRVS 
  Petra Pikulova         : Analytic Raman intensities                    
  Peter Pinski           : DLPNO-MP2, DLPNO-MP2 Gradient                 
  Shashank Vittal Rao    : ES-AILFT, MagRelax                            
  Christoph Reimann      : Effective Core Potentials                     
  Marius Retegan         : Local ZFS, SOC                                
  Christoph Riplinger    : Optimizer, TS searches, QM/MM, DLPNO-CCSD(T), (RO)-DLPNO pert. Triples 
  Michael Roemelt        : Original ROCIS implementation, recursive CI coupling coefficients
  Masaaki Saitow         : Open-shell DLPNO-CCSD energy and density      
  Barbara Sandhoefer     : DKH picture change effects                    
  Yorick L. A. Schmerwitz: GMF and freeze-and-release deltaSCF, NEB S-IDPP initial path                    
  Kantharuban Sivalingam : CASSCF convergence/infrastructure, NEVPT2, NEVPT3, NEVPT4(SD), FIC-MRCI and CEPA variants
  Bernardo de Souza      : ESD, SOC TD-DFT                               
  Georgi L. Stoychev     : AutoAux, RI-MP2 NMR, DLPNO-MP2 response, X2C  
  Van Anh Tran           : RI-MP2 g-tensors                              
  Willem Van den Heuvel  : Paramagnetic NMR                              
  Zikuan Wang            : NOTCH, Electric field optimization            
  Frank Wennmohs         : Technical directorship and infrastructure     
  Hang Xu                : AUTO-CI-Response properties                   
                                                                         
[FACCTs GmbH]                                                            
  Markus Bursch, Nicolas Foglia, Miquel Garcia-Rates, Ingolf Harden, Hagen Neugebauer, Anastasios Papadopoulos, 
  Christoph Riplinger, Bernardo de Souza, Georgi L. Stoychev                                                    
                                                                 
  APM, various basis sets, CI-OPT, improved COSX, DLPNO-Multilevel,           
  DOCKER, DRACO, updates on ESD, Fragmentator, GOAT, IRC, LR-CPCM, L-BFGS, MBIS, meta-GGA TD-DFT gradient, ML-optimized integration grids, 
  MM, NACMEs, nearIR, NEB, NEB-TS, NL-DFT gradient (VV10), 2- and 3-layer-ONIOM, interface openCOSMO-RS, QMMM,   
  Crystal-QMMM, RESP, rigid body optimization, SF, symmetry and pop. for TD-DFT, various functionals, SOLVATOR                                   
                                                                         
[Other institutions]                                                     
  V. Asgeirsson          : NEB                                           
  Christoph Bannwarth    : sTDA-DFT, sTD-DFT, PBEh-3c, B97-3c, D3        
  Giovanni Bistoni       : ETS/NOCV, ADLD/ADEX, COVALED                  
  Martin Brehm           : Molecular dynamics                            
  Ronald Cardenas        : ETS/NOCV                                      
  Martina Colucci        : COVALED                                       
  Sebastian Ehlert       : rSCAN, r2SCAN, r2SCAN-3c, D4, dhf basis sets  
  Marvin Friede          : D4 for Fr, Ra, Ac-Lr                          
  Lars Goerigk           : TD-DFT with DH, B97 family of functionals     
  Stefan Grimme          : VdW corrections, initial TS optimization, DFT functionals, gCP, sTDA/sTD-DF 
  Waldemar Hujo          : DFT-NL                                        
  H. Jonsson             : NEB                                           
  Holger Kruse           : gCP                                           
  Marcel Mueller         : wB97X-3c, vDZP basis set                      
  Hagen Neugebauer       : wr2SCAN, Native XTB                           
  Gianluca Regni         : ADLD/ADEX                                     
  Tobias Risthaus        : pre 6.0 range-separated hybrid DFT and stability analysis
  Lukas Wittmann         : regularized MP2, r2SCAN double-hybrids, wr2SCAN        
                                                                         
We gratefully acknowledge several colleagues who have allowed us to      
interface, adapt or use parts of their codes:                            
  Ed Valeev, F. Pavosevic, A. Kumar             : LibInt (2-el integral package), F12 methods 
  Garnet Chan, S. Sharma, J. Yang, R. Olivares  : DMRG                   
  Ulf Ekstrom                                   : XCFun DFT Library      
  Mihaly Kallay                                 : mrcc  (arbitrary order and MRCC methods)
  Frank Weinhold                                : gennbo (NPA and NBO analysis)           
  Simon Mueller                                 : openCOSMO-RS                            
  Christopher J. Cramer and Donald G. Truhlar   : smd solvation model                     
  S Lehtola, MJT Oliveira, MAL Marques          : LibXC Library                           
  Liviu Ungur et al                             : ANISO software                          


 Your calculation uses the libint2 library for the computation of 2-el integrals
 For citations please refer to: http://libint.valeyev.net

 Your ORCA version has been built with support for libXC version: 7.0.0
 For citations please refer to: https://libxc.gitlab.io

 This ORCA versions uses:
   CBLAS   interface :  Fast vector & matrix operations
   LAPACKE interface :  Fast linear algebra routines
   SCALAPACK package :  Parallel linear algebra routines
   Shared memory     :  Shared parallel matrices
   BLAS/LAPACK       :  OpenBLAS 0.3.29  USE64BITINT DYNAMIC_ARCH NO_AFFINITY Cooperlake SINGLE_THREADED
        Core in use  :  Cooperlake
   Copyright (c) 2011-2014, The OpenBLAS Project


  ***********************************
  * Starting time: Sun May  3 14:11:55 2026
  * Host name:     1c549898b3c4
  * Process ID:    21685
  * Working dir.:  /dev/shm/calc
  ***********************************

NOTE: MaxCore=5000 MB was set to SCF,MP2,MDCI,CIPSI,MRCI,RASCI and CIS
      => If you want to overwrite this, your respective input block should be placed after the MaxCore statement


***************************************
The coordinates will be read from file: cu2i2_veratrole_pi_opt_freq_v2.xyz
***************************************


Your calculation utilizes the atom-pairwise dispersion correction
with the Becke-Johnson damping scheme (D3BJ)


Your calculation utilizes the SMD solvation module
Please cite in your paper:
Marenich, A. V.; Cramer, C. J.; Truhlar, D. G. J. Phys. Chem. B 2009, 113, 6378 

================================================================================

cite the ECPs for I  [Def2-ECP] as follows:
Ce-Yb(ecp-28): M. Dolg, H. Stoll, H.Preuss, J. Chem. Phys., 1989, 90, 1730-1734.
Y-Cd(ecp-28), Hf-Hg(ecp-46): D. Andrae,U. Haeussermann, M. Dolg, H. Stoll, H. Preuss, Theor. Chim. Acta, 1990, 77, 123-141.
In-Sb(ecp-28), Tl-Bi(ecp-46): B. Metz, H. Stoll, M. Dolg, J. Chem. Phys., 2000, 113, 2563-2569.
Te-Xe(ecp-28), Po-Rn(ecp-46): K. A. Peterson, D. Figgen, E. Goll, H. Stoll, M. Dolg, J. Chem. Phys., 2003, 119, 11113-11123.
Rb(ecp-28), Cs(ecp-46): T. Leininger, A. Nicklass, W. Kuechle, H. Stoll, M. Dolg, A. Bergner, Chem. Phys. Lett., 1996, 255, 274-280.
Sr(ecp-28), Ba(ecp-46): M. Kaupp, P. V. Schleyer, H. Stoll and H. Preuss, J. Chem. Phys., 1991, 94, 1360-1366.
La(ecp-46): M. Dolg, H. Stoll, A. Savin, H. Preuss, Theor. Chim. Acta, 1989, 75, 173-194.
Lu(ecp-28): X. Cao, M. Dolg, J. Chem. Phys., 2001, 115, 7348-7355.

ECP parameters for I  [Def2-ECP] have been obtained from:
TURBOMOLE (7.0.2)

----- Orbital basis set information -----
Your calculation utilizes the basis: def2-TZVP
   F. Weigend and R. Ahlrichs, Phys. Chem. Chem. Phys. 7, 3297 (2005).

----- AuxJ basis set information -----
Your calculation utilizes the auxiliary basis: def2/J
   H-Rn: F. Weigend, Phys. Chem. Chem. Phys. 8, 1057 (2006).
   Fr-Lr: K. Eichkorn, F. Weigend, O. Treutler, R. Ahlrichs; Theor. Chem. Acc. 97, 119 (1997).

================================================================================
                                        WARNINGS
                       Please study these warnings very carefully!
================================================================================


================================================================================
                                       INPUT FILE
================================================================================
NAME = cu2i2_veratrole_pi_v2_smd_sp.inp
|  1> ! B3LYP D3BJ def2-TZVP RIJCOSX def2/J TightSCF SP CPCM(WATER) DefGrid3
|  2> 
|  3> %cpcm
|  4>   smd true
|  5>   SMDsolvent "Water"
|  6> end
|  7> 
|  8> %pal nprocs 8 end
|  9> %maxcore 5000
| 10> 
| 11> * xyzfile 0 1 cu2i2_veratrole_pi_opt_freq_v2.xyz
| 12> 
| 13>                          ****END OF INPUT****
================================================================================

                       ****************************
                       * Single Point Calculation *
                       ****************************

---------------------------------
CARTESIAN COORDINATES (ANGSTROEM)
---------------------------------
  Cu    -0.989185   -0.759869    0.134675
  Cu     1.386734   -0.749678    0.833443
  I      0.245419    1.441527    1.185046
  I      0.594036   -2.932589   -0.084426
  C     -3.554550   -0.049244    1.563970
  C     -3.608229    1.278283    1.088793
  C     -3.382720    1.532821   -0.263158
  C     -3.100783    0.493626   -1.142364
  C     -3.058022   -0.827474   -0.689006
  C     -3.292028   -1.087478    0.676682
  O     -3.798126   -0.345142    2.869491
  C     -2.767341    0.035695    3.793644
  H     -1.835978   -0.481865    3.551224
  H     -2.600449    1.112188    3.776254
  H     -3.118578   -0.272081    4.775607
  O     -3.867925    2.228293    2.011667
  C     -3.824062    3.592379    1.612553
  H     -4.594696    3.811916    0.868952
  H     -2.840128    3.850451    1.212698
  H     -4.015870    4.169885    2.512917
  H     -3.400343    2.546010   -0.634211
  H     -2.928072    0.711209   -2.187463
  H     -2.941324   -1.647605   -1.384879
  H     -3.307782   -2.100258    1.056892

----------------------------
CARTESIAN COORDINATES (A.U.)
----------------------------
  NO LB      ZA    FRAG     MASS         X           Y           Z
   0 Cu   29.0000    0    63.550   -1.869289   -1.435945    0.254498
   1 Cu   29.0000    0    63.550    2.620547   -1.416686    1.574978
   2 I    25.0000*   0   126.900    0.463775    2.724090    2.239412
   3 I    25.0000*   0   126.900    1.122566   -5.541790   -0.159543
   4 C     6.0000    0    12.011   -6.717127   -0.093057    2.955475
   5 C     6.0000    0    12.011   -6.818564    2.415606    2.057521
   6 C     6.0000    0    12.011   -6.392414    2.896612   -0.497296
   7 C     6.0000    0    12.011   -5.859632    0.932818   -2.158754
   8 C     6.0000    0    12.011   -5.778824   -1.563699   -1.302032
   9 C     6.0000    0    12.011   -6.221031   -2.055035    1.278743
  10 O     8.0000    0    15.999   -7.177417   -0.652224    5.422553
  11 C     6.0000    0    12.011   -5.229517    0.067453    7.168949
  12 H     1.0000    0     1.008   -3.469495   -0.910593    6.710840
  13 H     1.0000    0     1.008   -4.914136    2.101731    7.136086
  14 H     1.0000    0     1.008   -5.893259   -0.514159    9.024590
  15 O     8.0000    0    15.999   -7.309319    4.210863    3.801500
  16 C     6.0000    0    12.011   -7.226429    6.788613    3.047283
  17 H     1.0000    0     1.008   -8.682717    7.203477    1.642081
  18 H     1.0000    0     1.008   -5.367064    7.276298    2.291666
  19 H     1.0000    0     1.008   -7.588895    7.879941    4.748725
  20 H     1.0000    0     1.008   -6.425717    4.811262   -1.198485
  21 H     1.0000    0     1.008   -5.533255    1.343991   -4.133707
  22 H     1.0000    0     1.008   -5.558298   -3.113521   -2.617043
  23 H     1.0000    0     1.008   -6.250802   -3.968912    1.997237
* core charge reduced due to ECP

--------------------------------
INTERNAL COORDINATES (ANGSTROEM)
--------------------------------
 Cu     0   0   0     0.000000000000     0.00000000     0.00000000
 Cu     1   0   0     2.476564023318     0.00000000     0.00000000
 I      2   1   0     2.495516256019    66.70950791     0.00000000
 I      2   1   3     2.497188987293    65.67948478   180.06147779
 C      1   2   3     3.021419145186   132.85251836   305.66126152
 C      5   1   2     1.411028827574    95.40942853    94.99339570
 C      6   5   1     1.394064330611   119.48619922    46.22202310
 C      7   6   5     1.390114022671   120.64234401   359.72261718
 C      8   7   6     1.397378844972   120.51507114     0.94771014
 C      5   1   2     1.390729678558    50.38198253   219.51219274
 O      5   1   2     1.360613982969   123.69337203   321.20259031
 C     11   5   1     1.435831245758   115.55483329    50.05029363
 H     12  11   5     1.092737150347   110.08827217   298.98697420
 H     12  11   5     1.089492464092   111.20897347    60.53791099
 H     12  11   5     1.087356631421   105.91910827   180.13559788
 O      6   5   1     1.349687305773   116.05758062   226.91065527
 C     16   6   5     1.421952282471   118.51403179   174.84148528
 H     17  16   6     1.093167794058   111.21283635    63.86357423
 H     17  16   6     1.092982617298   110.91371382   301.39355069
 H     17  16   6     1.086719347890   105.77154666   182.55954413
 H      7   6   5     1.079140191134   120.14836208   181.30708900
 H      8   7   6     1.081390320393   119.55263141   180.04305235
 H      9   8   7     1.081883968319   120.75049045   173.60138328
 H     10   5   1     1.081911279067   118.15631604   112.44869256

---------------------------
INTERNAL COORDINATES (A.U.)
---------------------------
 Cu     0   0   0     0.000000000000     0.00000000     0.00000000
 Cu     1   0   0     4.680027757193     0.00000000     0.00000000
 I      2   1   0     4.715842286624    66.70950791     0.00000000
 I      2   1   3     4.719003290629    65.67948478   180.06147779
 C      1   2   3     5.709654720189   132.85251836   305.66126152
 C      5   1   2     2.666458051183    95.40942853    94.99339570
 C      6   5   1     2.634399797923   119.48619922    46.22202310
 C      7   6   5     2.626934797772   120.64234401   359.72261718
 C      8   7   6     2.640663322333   120.51507114     0.94771014
 C      5   1   2     2.628098218790    50.38198253   219.51219274
 O      5   1   2     2.571187801795   123.69337203   321.20259031
 C     11   5   1     2.713327829009   115.55483329    50.05029363
 H     12  11   5     2.064973950517   110.08827217   298.98697420
 H     12  11   5     2.058842382105   111.20897347    60.53791099
 H     12  11   5     2.054806243289   105.91910827   180.13559788
 O      6   5   1     2.550539374342   116.05758062   226.91065527
 C     16   6   5     2.687100389374   118.51403179   174.84148528
 H     17  16   6     2.065787749193   111.21283635    63.86357423
 H     17  16   6     2.065437815830   110.91371382   301.39355069
 H     17  16   6     2.053601951946   105.77154666   182.55954413
 H      7   6   5     2.039279421350   120.14836208   181.30708900
 H      8   7   6     2.043531549416   119.55263141   180.04305235
 H      9   8   7     2.044464408803   120.75049045   173.60138328
 H     10   5   1     2.044516018638   118.15631604   112.44869256

---------------------
BASIS SET INFORMATION
---------------------
There are 5 groups of distinct atoms

 Group   1 Type Cu  : 17s11p7d1f contracted to 6s4p4d1f pattern {842111/6311/4111/1}
 Group   2 Type I   : 11s10p8d2f contracted to 6s5p3d2f pattern {521111/34111/611/11}
 Group   3 Type C   : 11s6p2d1f contracted to 5s3p2d1f pattern {62111/411/11/1}
 Group   4 Type O   : 11s6p2d1f contracted to 5s3p2d1f pattern {62111/411/11/1}
 Group   5 Type H   : 5s1p contracted to 3s1p pattern {311/1}

Atom   0Cu   basis set group =>   1
Atom   1Cu   basis set group =>   1
Atom   2I    basis set group =>   2
Atom   3I    basis set group =>   2
Atom   4C    basis set group =>   3
Atom   5C    basis set group =>   3
Atom   6C    basis set group =>   3
Atom   7C    basis set group =>   3
Atom   8C    basis set group =>   3
Atom   9C    basis set group =>   3
Atom  10O    basis set group =>   4
Atom  11C    basis set group =>   3
Atom  12H    basis set group =>   5
Atom  13H    basis set group =>   5
Atom  14H    basis set group =>   5
Atom  15O    basis set group =>   4
Atom  16C    basis set group =>   3
Atom  17H    basis set group =>   5
Atom  18H    basis set group =>   5
Atom  19H    basis set group =>   5
Atom  20H    basis set group =>   5
Atom  21H    basis set group =>   5
Atom  22H    basis set group =>   5
Atom  23H    basis set group =>   5
---------------------------------
AUXILIARY/J BASIS SET INFORMATION
---------------------------------
There are 5 groups of distinct atoms

 Group   1 Type Cu  : 19s5p5d3f3g contracted to 8s5p4d3f3g pattern {121111111/11111/2111/111/111}
 Group   2 Type I   : 11s5p5d3f1g contracted to 8s4p3d2f1g pattern {41111111/2111/311/21/1}
 Group   3 Type C   : 12s5p4d2f1g contracted to 6s4p3d1f1g pattern {711111/2111/211/2/1}
 Group   4 Type O   : 12s5p4d2f1g contracted to 6s4p3d1f1g pattern {711111/2111/211/2/1}
 Group   5 Type H   : 5s2p1d contracted to 3s1p1d pattern {311/2/1}

Atom   0Cu   basis set group =>   1
Atom   1Cu   basis set group =>   1
Atom   2I    basis set group =>   2
Atom   3I    basis set group =>   2
Atom   4C    basis set group =>   3
Atom   5C    basis set group =>   3
Atom   6C    basis set group =>   3
Atom   7C    basis set group =>   3
Atom   8C    basis set group =>   3
Atom   9C    basis set group =>   3
Atom  10O    basis set group =>   4
Atom  11C    basis set group =>   3
Atom  12H    basis set group =>   5
Atom  13H    basis set group =>   5
Atom  14H    basis set group =>   5
Atom  15O    basis set group =>   4
Atom  16C    basis set group =>   3
Atom  17H    basis set group =>   5
Atom  18H    basis set group =>   5
Atom  19H    basis set group =>   5
Atom  20H    basis set group =>   5
Atom  21H    basis set group =>   5
Atom  22H    basis set group =>   5
Atom  23H    basis set group =>   5
-------------------------
ECP PARAMETER INFORMATION
-------------------------

 Group 1, Type I  ECP Def2-ECP (replacing 28 core electrons, lmax=3)

Atom   2I    ECP group =>   1
Atom   3I    ECP group =>   1


Checking for AutoStart:
The File: cu2i2_veratrole_pi_v2_smd_sp.gbw exists
Trying to determine its content:
     ... Fine, the file contains calculation information
     ... Fine, the calculation information was read
     ... Fine, the file contains a basis set
     ... Fine, the basis set was read
     ... Fine, the file contains ECP parameters
     ... Fine, ECP parameters were read
     ... Fine, the file contains a geometry
     ... Fine, the geometry was read
     ... Fine, the file contains a set of orbitals
     ... Fine, the orbitals can be read
     => possible old guess file was deleted
     => GBW file was renamed to GES file
     => GES file is set as startup file
     => Guess is set to MORead
     ... now leaving AutoStart



           ************************************************************
           *        Program running with 8 parallel MPI-processes     *
           *              working on a common directory               *
           ************************************************************
------------------------------------------------------------------------------
                             ORCA STARTUP CALCULATIONS
                           -- RI-GTO INTEGRALS CHOSEN --
------------------------------------------------------------------------------
------------------------------------------------------------------------------
                   ___                                                        
                  /   \      - P O W E R E D   B Y -                         
                 /     \                                                     
                 |  |  |   _    _      __       _____    __    __             
                 |  |  |  | |  | |    /  \     |  _  \  |  |  /  |          
                  \  \/   | |  | |   /    \    | | | |  |  | /  /          
                 / \  \   | |__| |  /  /\  \   | |_| |  |  |/  /          
                |  |  |   |  __  | /  /__\  \  |    /   |      \           
                |  |  |   | |  | | |   __   |  |    \   |  |\   \          
                \     /   | |  | | |  |  |  |  | |\  \  |  | \   \       
                 \___/    |_|  |_| |__|  |__|  |_| \__\ |__|  \__/        
                                                                              
                      - O R C A' S   B I G   F R I E N D -                    
                                      &                                       
                       - I N T E G R A L  F E E D E R -                       
                                                                              
 v1 FN, 2020, v2 2021, v3 2022-2024                                           
------------------------------------------------------------------------------


----------------------
SHARK INTEGRAL PACKAGE
----------------------

Number of atoms                             ...     24
Number of basis functions                   ...    560
Number of shells                            ...    212
Maximum angular momentum                    ...      3
Integral batch strategy                     ... SHARK/LIBINT Hybrid
RI-J (if used) integral strategy            ... SPLIT-RIJ (Revised 2003 algorithm where possible)
Printlevel                                  ...      1
Contraction scheme used                     ... SEGMENTED contraction
Prescreening option                         ... SCHWARTZ
   Thresh                                   ... 2.500e-11
   Tcut                                     ... 2.500e-12
   Tpresel                                  ... 2.500e-12 
Coulomb Range Separation                    ... NOT USED
Exchange Range Separation                   ... NOT USED
Multipole approximations                    ... NOT USED
Finite Nucleus Model                        ... NOT USED
CABS basis                                  ... NOT available
Auxiliary Coulomb fitting basis             ... AVAILABLE
   # of basis functions in Aux-J            ...    898
   # of shells in Aux-J                     ...    282
   Maximum angular momentum in Aux-J        ...      4
Auxiliary J/K fitting basis                 ... NOT available
Auxiliary Correlation fitting basis         ... NOT available
Auxiliary 'external' fitting basis          ... NOT available

Checking pre-screening integrals            ... done (  0.0 sec) Dimension = 212
   => SHARK Basis and OBASIS are compatible. Storing Pre-screening
Shell pair information
Shell pair cut-off parameter TPreSel        ...   2.5e-12
Total number of shell pairs                 ...     22578
Shell pairs after pre-screening             ...     17709
Total number of primitive shell pairs       ...     78253
Primitive shell pairs kept                  ...     40025
          la=0 lb=0:   4116 shell pairs
          la=1 lb=0:   4753 shell pairs
          la=1 lb=1:   1417 shell pairs
          la=2 lb=0:   2813 shell pairs
          la=2 lb=1:   1658 shell pairs
          la=2 lb=2:    505 shell pairs
          la=3 lb=0:   1199 shell pairs
          la=3 lb=1:    712 shell pairs
          la=3 lb=2:    435 shell pairs
          la=3 lb=3:    101 shell pairs

Checking whether 4 symmetric matrices of dimension 560 fit in memory
:Max Core in MB      =   5000.00
 MB in use           =     26.02
 MB left             =   4973.98
 MB needed           =      4.79
 Data fit in memory  = YES
Calculating RI/J V-Matrix + Cholesky decomp.... done (  0.0 sec)
Calculating Nuclear repulsion               ... done (  0.0 sec) ENN=   2310.724873536647 Eh

Diagonalization of the overlap matrix:
Smallest eigenvalue                        ... 6.814e-06
Time for diagonalization                   ...    0.021 sec
Threshold for overlap eigenvalues          ... 1.000e-07
Number of eigenvalues below threshold      ... 0
Time for construction of square roots      ...    0.010 sec
Total time needed                          ...    0.032 sec

-------------------
DFT GRID GENERATION
-------------------

General Integration Accuracy     IntAcc      ... 4.959
Radial Grid Type                 RadialGrid  ... OptM3 with GC (2021)
Angular Grid (max. ang.)         AngularGrid ... 6 (Lebedev-590)
Angular grid pruning method      GridPruning ... 4 (adaptive)
Weight generation scheme         WeightScheme... mBecke (2022)
Basis function cutoff            BFCut       ... 1.0000e-11
Integration weight cutoff        WCut        ... 1.0000e-14
Partially contracted basis set               ... off
Rotationally invariant grid construction     ... off
Angular grids for H and He will be reduced by one unit
Core-polarized basis detected: some atoms will have their core
                               angular grid increased.

Total number of grid points                  ...   330525
Total number of batches                      ...     5177
Average number of points per batch           ...       63
Average number of grid points per atom       ...    13772

--------------------
COSX GRID GENERATION
--------------------

GRIDX 1
-------
General Integration Accuracy     IntAcc      ... 4.020
Radial Grid Type                 RadialGrid  ... OptM3 with GC (2021)
Angular Grid (max. ang.)         AngularGrid ... 2 (Lebedev-110)
Angular grid pruning method      GridPruning ... 4 (adaptive)
Weight generation scheme         WeightScheme... mBecke (2022)
Basis function cutoff            BFCut       ... 1.0000e-11
Integration weight cutoff        WCut        ... 1.0000e-14
Partially contracted basis set               ... on
Rotationally invariant grid construction     ... off
Angular grids for H and He will be reduced by one unit
Core-polarized basis detected: some atoms will have their core
                               angular grid increased.

Total number of grid points                  ...    48110
Total number of batches                      ...      389
Average number of points per batch           ...      123
Average number of grid points per atom       ...     2005
UseSFitting                                  ... on

GRIDX 2
-------
General Integration Accuracy     IntAcc      ... 4.338
Radial Grid Type                 RadialGrid  ... OptM3 with GC (2021)
Angular Grid (max. ang.)         AngularGrid ... 3 (Lebedev-194)
Angular grid pruning method      GridPruning ... 4 (adaptive)
Weight generation scheme         WeightScheme... mBecke (2022)
Basis function cutoff            BFCut       ... 1.0000e-11
Integration weight cutoff        WCut        ... 1.0000e-14
Partially contracted basis set               ... on
Rotationally invariant grid construction     ... off
Angular grids for H and He will be reduced by one unit
Core-polarized basis detected: some atoms will have their core
                               angular grid increased.

Total number of grid points                  ...    77822
Total number of batches                      ...      620
Average number of points per batch           ...      125
Average number of grid points per atom       ...     3243
UseSFitting                                  ... on

GRIDX 3
-------
General Integration Accuracy     IntAcc      ... 4.871
Radial Grid Type                 RadialGrid  ... OptM3 with GC (2021)
Angular Grid (max. ang.)         AngularGrid ... 4 (Lebedev-302)
Angular grid pruning method      GridPruning ... 4 (adaptive)
Weight generation scheme         WeightScheme... mBecke (2022)
Basis function cutoff            BFCut       ... 1.0000e-11
Integration weight cutoff        WCut        ... 1.0000e-14
Partially contracted basis set               ... on
Rotationally invariant grid construction     ... off
Angular grids for H and He will be reduced by one unit
Core-polarized basis detected: some atoms will have their core
                               angular grid increased.

Total number of grid points                  ...   146090
Total number of batches                      ...     1151
Average number of points per batch           ...      126
Average number of grid points per atom       ...     6087
UseSFitting                                  ... on
Grids setup in   5.6 sec
Initializing property integral containers    ... done (  0.0 sec)

SHARK setup successfully completed in   6.3 seconds

Maximum memory used throughout the entire STARTUP-calculation: 105.2 MB


           ************************************************************
           *        Program running with 8 parallel MPI-processes     *
           *              working on a common directory               *
           ************************************************************
-------------------------------------------------------------------------------
                                 ORCA GUESS
                   Start orbitals & Density for SCF / CASSCF
-------------------------------------------------------------------------------

------------
SCF SETTINGS
------------
Hamiltonian:
 Density Functional     Method          .... DFT(GTOs)
 Exchange Functional    Exchange        .... B88
   X-Alpha parameter    XAlpha          ....  0.666667
   Becke's b parameter  XBeta           ....  0.004200
 Correlation Functional Correlation     .... LYP
 LDA part of GGA corr.  LDAOpt          .... VWN-5
 Gradients option       PostSCFGGA      .... off
 Hybrid DFT is turned on
   Fraction HF Exchange ScalHFX         ....  0.200000
   Scaling of DF-GGA-X  ScalDFX         ....  0.720000
   Scaling of DF-GGA-C  ScalDFC         ....  0.810000
   Scaling of DF-LDA-C  ScalLDAC        ....  1.000000
   Perturbative correction              ....  0.000000
   NL short-range parameter             ....  4.800000
 RI-approximation to the Coulomb term is turned on
   Number of AuxJ basis functions       .... 898
   RIJ-COSX (HFX calculated with COS-X)).... on


General Settings:
 Integral files         IntName         .... cu2i2_veratrole_pi_v2_smd_sp
 Hartree-Fock type      HFTyp           .... RHF
 Total Charge           Charge          ....    0
 Multiplicity           Mult            ....    1
 Number of Electrons    NEL             ....  182
 Basis Dimension        Dim             ....  560
 Nuclear Repulsion      ENuc            ....   2310.7248735366 Eh

Convergence Acceleration:
 AO-DIIS                CNVDIIS         .... on
   Start iteration      DIISMaxIt       ....    12
   Startup error        DIISStart       ....  0.200000
   # of expansion vecs  DIISMaxEq       ....     5
   Bias factor          DIISBfac        ....   1.050
   Max. coefficient     DIISMaxC        ....  10.000
 MO-DIIS                CNVKDIIS        .... off
 Trust-Rad. Augm. Hess. CNVTRAH         .... auto
   Auto Start mean grad. ratio tolernc. ....  1.125000
   Auto Start start iteration           ....     1
   Auto Start num. interpolation iter.  ....    10
   Max. Number of Micro iterations      ....    24
   Max. Number of Macro iterations      .... Maxiter - #DIIS iter
   Number of Davidson start vectors     ....     2
   Converg. threshold    (grad. norm)   ....   1.000e-05
   Grad. Scal. Fac. for Micro threshold ....   0.100
   Minimum threshold for Micro iter.    ....   1.000e-02
   NR start threshold (gradient norm)   ....   1.000e-04
   Initial trust radius                 ....   0.400
   Minimum AH scaling param. (alpha)    ....   1.000
   Maximum AH scaling param. (alpha)    .... 1000.000
   Quad. conv. algorithm                .... NR
   White noise on init. David. guess    .... on
   Maximum white noise                  ....   0.010
   Pseudo random numbers                .... off
   Inactive MOs                         .... canonical
   Orbital update algorithm             .... Taylor
   Preconditioner                       .... Diag
   Full preconditioner red. dimension   ....   250
 SOSCF                 CNVSOSCF           .... on
   Start iteration     SOSCFMaxIt         ....   150
   Startup grad/error  SOSCFStart         ....  0.003300
   Hessian update      SOSCFHessUp        .... L-BFGS
   Autom. constraints  SOSCFAutoConstrain .... off
 Level Shifting         CNVShift        .... on
   Level shift para.    LevelShift      ....    0.2500
   Turn off err/grad.   ShiftErr        ....    0.0010
 Zerner damping         CNVZerner       .... off
 Static damping         CNVDamp         .... on
   Fraction old density DampFac         ....    0.7000
   Max. Damping (<1)    DampMax         ....    0.9800
   Min. Damping (>=0)   DampMin         ....    0.0000
   Turn off err/grad.   DampErr         ....    0.1000

SCF Procedure:
 Maximum # iterations   MaxIter         ....   125
 SCF integral mode      SCFMode         .... Direct
   Integral package                     .... SHARK and LIBINT hybrid scheme
 Reset frequency        DirectResetFreq ....    20
 Integral Threshold     Thresh          ....  2.500e-11 Eh
 Primitive CutOff       TCut            ....  2.500e-12 Eh

Convergence Tolerance:
 Convergence Check Mode ConvCheckMode   .... Total+1el-Energy
 Convergence forced     ConvForced      .... 0
 Energy Change          TolE            ....  1.000e-08 Eh
 1-El. energy change                    ....  1.000e-05 Eh
 Orbital Gradient       TolG            ....  1.000e-05
 Orbital Rotation angle TolX            ....  1.000e-05
 DIIS Error             TolErr          ....  5.000e-07

---------------------
INITIAL GUESS: MOREAD
---------------------
Guess MOs are being read from file: cu2i2_veratrole_pi_v2_smd_sp.ges
Input Geometry matches current geometry (good)
Input basis set matches current basis set (good)
Occupation numbers will be reassigned to an Aufbau configuration
MOs were renormalized
MOs were reorthogonalized (Cholesky)
                      ------------------
                      INITIAL GUESS DONE (   0.8 sec)
                      ------------------
             **** ENERGY FILE WAS UPDATED (cu2i2_veratrole_pi_v2_smd_sp.en.tmp) ****
Finished Guess after   2.7 sec
Maximum memory used throughout the entire GUESS-calculation: 43.9 MB


           ************************************************************
           *        Program running with 8 parallel MPI-processes     *
           *              working on a common directory               *
           ************************************************************

-------------------------------------------------------------------------------------------
                                      ORCA LEAN-SCF
                              memory conserving SCF solver
-------------------------------------------------------------------------------------------

--------------------
CPCM SOLVATION MODEL
--------------------
CPCM parameters:
  Epsilon                                         ...      78.3550
  Refrac                                          ...       1.3328
  Rsolv                                           ...       1.3000
  Surface type                                    ... GAUSSIAN VDW
  Discretization scheme                           ... Constant charge density
    Threshold for H atoms                         ...       5.0000 (charges/Ang^2)
    Threshold for non-H atoms                     ...       5.0000 (charges/Ang^2)
  Epsilon function type                           ...         CPCM
Solvent:                                          ... WATER
SMD-CDS solvent descriptors:
  Soln                                            ...       1.3328
  Soln25                                          ...       1.3323
  Sola                                            ...       0.0000
  Solb                                            ...       0.0000
  Solg                                            ...       0.0000
  Solc                                            ...       0.0000
  Solh                                            ...       0.0000
Radii:
  Scheme                                          ... Element-dependent radii
  Radius for Cu used is    3.5149 Bohr (=   1.8600 Ang.)
  Radius for I  used is    3.7417 Bohr (=   1.9800 Ang.)
  Radius for C  used is    3.4960 Bohr (=   1.8500 Ang.)
  Radius for O  used is    2.8724 Bohr (=   1.5200 Ang.)
  Radius for H  used is    2.2677 Bohr (=   1.2000 Ang.)
Calculating surface                               ...        done! (  0.0s)
Cavity surface points                             ...         2031
Cavity Volume                                     ...    1606.7702
Cavity Surface-area                               ...     971.2718
Calculating surface distance matrix               ...        done! (  0.1s)
Performing Cholesky decomposition & store         ...        done! (  0.4s)
Overall time for CPCM initialization              ...                 0.5s

----------------------------------------D-I-I-S--------------------------------------------
Iteration    Energy (Eh)           Delta-E    RMSDP     MaxDP     DIISErr   Damp  Time(sec)
-------------------------------------------------------------------------------------------
               ***  Starting incremental Fock matrix formation  ***
    1    -4337.7259875055642624     0.00e+00  7.23e-04  1.65e-02  9.28e-03  0.700   9.5
    2    -4337.7267767262574125    -7.89e-04  7.85e-04  1.98e-02  6.71e-03  0.700   4.4
                               ***Turning on AO-DIIS***
    3    -4337.7273754358438964    -5.99e-04  7.96e-04  2.19e-02  4.97e-03  0.700   4.3
    4    -4337.7278022035279719    -4.27e-04  2.23e-03  6.19e-02  3.57e-03  0.000   4.4
                              *** Initializing SOSCF ***
---------------------------------------S-O-S-C-F--------------------------------------
Iteration    Energy (Eh)           Delta-E    RMSDP     MaxDP     MaxGrad    Time(sec)
--------------------------------------------------------------------------------------
    5    -4337.7288819240202429    -1.08e-03  1.80e-04  5.29e-03  1.60e-03     4.9
               *** Restarting incremental Fock matrix formation ***
    6    -4337.7288893557179108    -7.43e-06  1.73e-04  3.66e-03  9.11e-04     9.4
    7    -4337.7288027654549296     8.66e-05  8.09e-05  1.72e-03  2.50e-03     6.4
    8    -4337.7289073953916159    -1.05e-04  2.01e-05  4.19e-04  4.77e-05     5.7
    9    -4337.7289073269112123     6.85e-08  1.56e-05  4.75e-04  7.71e-05     5.2
   10    -4337.7289076021961591    -2.75e-07  2.03e-05  6.81e-04  3.10e-05     4.7
   11    -4337.7289075306134691     7.16e-08  1.57e-05  5.62e-04  6.58e-05     4.5
   12    -4337.7289075992594007    -6.86e-08  2.77e-05  7.87e-04  4.89e-06     4.2
   13    -4337.7289076272236343    -2.80e-08  5.49e-06  1.65e-04  6.23e-06     3.9
   14    -4337.7289075662965843     6.09e-08  1.90e-05  5.02e-04  5.29e-07     3.4
                  *** Gradient check signals convergence ***

               *****************************************************
               *                     SUCCESS                       *
               *           SCF CONVERGED AFTER  14 CYCLES          *
               *****************************************************

Recomputing exchange energy using gridx3       ... done (   14.214 sec)
Old exchange energy                            :    -47.041766879 Eh
New exchange energy                            :    -47.041739276 Eh
Exchange energy change after final integration :      0.000027603 Eh
Total energy after final integration           :  -4337.728879946 Eh

SMD CDS free energy correction energy :                 4.84852     Kcal/mol
Total Energy after SMD CDS correction =             -4337.721153340 Eh
             **** ENERGY FILE WAS UPDATED (cu2i2_veratrole_pi_v2_smd_sp.en.tmp) ****

----------------
TOTAL SCF ENERGY
----------------

Total Energy       :      -4337.72115333964575 Eh         -118035.39339 eV

Components:
Nuclear Repulsion  :       2310.72487353664746 Eh           62878.02047 eV
Electronic Energy  :      -6648.43300454538894 Eh         -180913.05950 eV
One Electron Energy:     -10847.88012775214338 Eh         -295185.82523 eV
Two Electron Energy:       4199.44712320675444 Eh          114272.76574 eV
CPCM Dielectric    :         -0.02077653977956 Eh              -0.56536 eV
SMD CDS (Gcds)     :          0.00772660623108 Eh               0.21025 eV

Virial components:
Potential Energy   :      -8300.30313223303892 Eh         -225862.73087 eV
Kinetic Energy     :       3962.58197889339272 Eh          107827.33748 eV
Virial Ratio       :          2.09467038825807

DFT components:
N(Alpha)           :       91.000008040909 electrons
N(Beta)            :       91.000008040909 electrons
N(Total)           :      182.000016081818 electrons
E(X)               :     -187.512785890962 Eh       
E(C)               :       -8.504834783778 Eh       
E(XC)              :     -196.017620674741 Eh       

CPCM Solvation Model Properties:
Surface-charge          :         -0.10362578429665
Corrected charge        :          0.00000000000000
Outlying charge corr.   :          0.00066081163193 Eh               0.01798 eV
Free-energy (cav+disp)  :          0.00772660623108 Eh               0.21025 eV

---------------
SCF CONVERGENCE
---------------

  Last Energy change         ...   -6.0927e-08  Tolerance :   1.0000e-08
  Last MAX-Density change    ...    5.0221e-04  Tolerance :   1.0000e-07
  Last RMS-Density change    ...    1.9000e-05  Tolerance :   5.0000e-09
  Last DIIS Error            ...    1.5977e-03  Tolerance :   5.0000e-07
  Last Orbital Gradient      ...    5.2927e-07  Tolerance :   1.0000e-05
  Last Orbital Rotation      ...    1.3423e-06  Tolerance :   1.0000e-05


----------------
ORBITAL ENERGIES
----------------

  NO   OCC          E(Eh)            E(eV) 
   0   2.0000    -323.004887     -8789.4098 
   1   2.0000    -322.998571     -8789.2379 
   2   2.0000     -38.798252     -1055.7541 
   3   2.0000     -38.790364     -1055.5395 
   4   2.0000     -34.002900      -925.2659 
   5   2.0000     -34.002673      -925.2598 
   6   2.0000     -34.002589      -925.2575 
   7   2.0000     -33.995274      -925.0584 
   8   2.0000     -33.994950      -925.0496 
   9   2.0000     -33.994616      -925.0405 
  10   2.0000     -19.165375      -521.5164 
  11   2.0000     -19.150632      -521.1152 
  12   2.0000     -10.243608      -278.7427 
  13   2.0000     -10.236512      -278.5496 
  14   2.0000     -10.212285      -277.8904 
  15   2.0000     -10.207281      -277.7542 
  16   2.0000     -10.189859      -277.2802 
  17   2.0000     -10.186795      -277.1968 
  18   2.0000     -10.185269      -277.1553 
  19   2.0000     -10.178071      -276.9594 
  20   2.0000      -6.815055      -185.4471 
  21   2.0000      -6.813189      -185.3963 
  22   2.0000      -4.833743      -131.5328 
  23   2.0000      -4.831978      -131.4848 
  24   2.0000      -4.831344      -131.4676 
  25   2.0000      -4.829766      -131.4246 
  26   2.0000      -4.829532      -131.4182 
  27   2.0000      -4.827761      -131.3701 
  28   2.0000      -4.289519      -116.7237 
  29   2.0000      -4.282266      -116.5264 
  30   2.0000      -2.785412       -75.7949 
  31   2.0000      -2.784087       -75.7589 
  32   2.0000      -2.781241       -75.6814 
  33   2.0000      -2.778396       -75.6040 
  34   2.0000      -2.776312       -75.5473 
  35   2.0000      -2.774486       -75.4976 
  36   2.0000      -1.882600       -51.2282 
  37   2.0000      -1.881883       -51.2086 
  38   2.0000      -1.880849       -51.1805 
  39   2.0000      -1.880563       -51.1727 
  40   2.0000      -1.880123       -51.1608 
  41   2.0000      -1.878687       -51.1217 
  42   2.0000      -1.878347       -51.1124 
  43   2.0000      -1.878182       -51.1079 
  44   2.0000      -1.876432       -51.0603 
  45   2.0000      -1.876237       -51.0550 
  46   2.0000      -1.083353       -29.4795 
  47   2.0000      -1.057164       -28.7669 
  48   2.0000      -0.865624       -23.5548 
  49   2.0000      -0.766844       -20.8669 
  50   2.0000      -0.762502       -20.7487 
  51   2.0000      -0.708242       -19.2722 
  52   2.0000      -0.683631       -18.6025 
  53   2.0000      -0.669271       -18.2118 
  54   2.0000      -0.663903       -18.0657 
  55   2.0000      -0.614506       -16.7215 
  56   2.0000      -0.600687       -16.3455 
  57   2.0000      -0.542546       -14.7634 
  58   2.0000      -0.511717       -13.9245 
  59   2.0000      -0.505934       -13.7672 
  60   2.0000      -0.479057       -13.0358 
  61   2.0000      -0.469772       -12.7831 
  62   2.0000      -0.457377       -12.4458 
  63   2.0000      -0.446326       -12.1451 
  64   2.0000      -0.435407       -11.8480 
  65   2.0000      -0.421482       -11.4691 
  66   2.0000      -0.396484       -10.7889 
  67   2.0000      -0.390414       -10.6237 
  68   2.0000      -0.372823       -10.1450 
  69   2.0000      -0.359490        -9.7822 
  70   2.0000      -0.349108        -9.4997 
  71   2.0000      -0.336753        -9.1635 
  72   2.0000      -0.331868        -9.0306 
  73   2.0000      -0.325862        -8.8672 
  74   2.0000      -0.310857        -8.4588 
  75   2.0000      -0.298484        -8.1222 
  76   2.0000      -0.295955        -8.0534 
  77   2.0000      -0.292993        -7.9727 
  78   2.0000      -0.288020        -7.8374 
  79   2.0000      -0.279980        -7.6186 
  80   2.0000      -0.272531        -7.4159 
  81   2.0000      -0.270371        -7.3572 
  82   2.0000      -0.268531        -7.3071 
  83   2.0000      -0.266115        -7.2414 
  84   2.0000      -0.262569        -7.1449 
  85   2.0000      -0.256970        -6.9925 
  86   2.0000      -0.246993        -6.7210 
  87   2.0000      -0.232703        -6.3322 
  88   2.0000      -0.230738        -6.2787 
  89   2.0000      -0.225268        -6.1298 
  90   2.0000      -0.218332        -5.9411 
  91   0.0000      -0.036316        -0.9882 
  92   0.0000      -0.027498        -0.7483 
  93   0.0000      -0.021818        -0.5937 
  94   0.0000      -0.005141        -0.1399 
  95   0.0000       0.035326         0.9613 
  96   0.0000       0.046290         1.2596 
  97   0.0000       0.057885         1.5751 
  98   0.0000       0.059452         1.6178 
  99   0.0000       0.071892         1.9563 
 100   0.0000       0.079596         2.1659 
 101   0.0000       0.082669         2.2495 
*Only the first 10 virtual orbitals were printed.

                    ********************************
                    * MULLIKEN POPULATION ANALYSIS *
                    ********************************

-----------------------
MULLIKEN ATOMIC CHARGES
-----------------------
   0 Cu:    0.237488
   1 Cu:    0.171451
   2 I :   -0.366155
   3 I :   -0.362196
   4 C :    0.319575
   5 C :    0.244821
   6 C :   -0.276747
   7 C :   -0.108518
   8 C :   -0.060013
   9 C :   -0.226239
  10 O :   -0.369532
  11 C :   -0.186151
  12 H :    0.126919
  13 H :    0.137798
  14 H :    0.146766
  15 O :   -0.320181
  16 C :   -0.213486
  17 H :    0.146428
  18 H :    0.145039
  19 H :    0.155001
  20 H :    0.170217
  21 H :    0.164211
  22 H :    0.166752
  23 H :    0.156754
Sum of atomic charges:   -0.0000000

--------------------------------
MULLIKEN REDUCED ORBITAL CHARGES
--------------------------------
  0 Cus       :     6.535173  s :     6.535173
      pz      :     4.070226  p :    12.378441
      px      :     4.167238
      py      :     4.140978
      dz2     :     1.981973  d :     9.848840
      dxz     :     1.961778
      dyz     :     1.990962
      dx2y2   :     1.947847
      dxy     :     1.966281
      f0      :     0.000007  f :     0.000057
      f+1     :     0.000007
      f-1     :     0.000003
      f+2     :     0.000009
      f-2     :     0.000006
      f+3     :     0.000016
      f-3     :     0.000009

  1 Cus       :     6.610716  s :     6.610716
      pz      :     4.059037  p :    12.325529
      px      :     4.071625
      py      :     4.194867
      dz2     :     1.985732  d :     9.892251
      dxz     :     1.990842
      dyz     :     1.979571
      dx2y2   :     1.944106
      dxy     :     1.992002
      f0      :     0.000006  f :     0.000053
      f+1     :     0.000004
      f-1     :     0.000007
      f+2     :     0.000008
      f-2     :     0.000006
      f+3     :     0.000010
      f-3     :     0.000012

  2 I s       :     3.946960  s :     3.946960
      pz      :     3.931147  p :    11.370234
      px      :     3.813667
      py      :     3.625420
      dz2     :     2.004295  d :    10.042070
      dxz     :     2.004736
      dyz     :     2.010287
      dx2y2   :     2.013480
      dxy     :     2.009272
      f0      :     0.000685  f :     0.006891
      f+1     :     0.000353
      f-1     :     0.001015
      f+2     :     0.000765
      f-2     :     0.000921
      f+3     :     0.001444
      f-3     :     0.001709

  3 I s       :     3.942617  s :     3.942617
      pz      :     3.916409  p :    11.370404
      px      :     3.829216
      py      :     3.624778
      dz2     :     2.005036  d :    10.042086
      dxz     :     2.004031
      dyz     :     2.009319
      dx2y2   :     2.012988
      dxy     :     2.010713
      f0      :     0.000716  f :     0.007089
      f+1     :     0.000301
      f-1     :     0.001163
      f+2     :     0.000881
      f-2     :     0.000991
      f+3     :     0.001400
      f-3     :     0.001636

  4 C s       :     2.981470  s :     2.981470
      pz      :     0.758454  p :     2.524450
      px      :     0.930966
      py      :     0.835030
      dz2     :     0.026239  d :     0.158911
      dxz     :     0.036746
      dyz     :     0.056433
      dx2y2   :     0.018208
      dxy     :     0.021284
      f0      :     0.003112  f :     0.015594
      f+1     :     0.002373
      f-1     :     0.004663
      f+2     :     0.001757
      f-2     :     0.001224
      f+3     :     0.001514
      f-3     :     0.000951

  5 C s       :     3.117353  s :     3.117353
      pz      :     0.767566  p :     2.463604
      px      :     0.929631
      py      :     0.766407
      dz2     :     0.039117  d :     0.158443
      dxz     :     0.034553
      dyz     :     0.033358
      dx2y2   :     0.018998
      dxy     :     0.032418
      f0      :     0.002129  f :     0.015779
      f+1     :     0.001524
      f-1     :     0.004292
      f+2     :     0.002319
      f-2     :     0.002617
      f+3     :     0.001752
      f-3     :     0.001147

  6 C s       :     3.317107  s :     3.317107
      pz      :     0.899524  p :     2.879233
      px      :     1.005755
      py      :     0.973954
      dz2     :     0.020568  d :     0.073020
      dxz     :     0.017337
      dyz     :     0.015480
      dx2y2   :     0.012103
      dxy     :     0.007532
      f0      :     0.001325  f :     0.007388
      f+1     :     0.001212
      f-1     :     0.001748
      f+2     :     0.000945
      f-2     :     0.000721
      f+3     :     0.000619
      f-3     :     0.000818

  7 C s       :     3.217078  s :     3.217078
      pz      :     0.944406  p :     2.801088
      px      :     0.963846
      py      :     0.892836
      dz2     :     0.021399  d :     0.083109
      dxz     :     0.006364
      dyz     :     0.017414
      dx2y2   :     0.015859
      dxy     :     0.022073
      f0      :     0.001046  f :     0.007242
      f+1     :     0.000349
      f-1     :     0.001746
      f+2     :     0.001078
      f-2     :     0.000999
      f+3     :     0.001260
      f-3     :     0.000764

  8 C s       :     3.126399  s :     3.126399
      pz      :     0.933043  p :     2.834476
      px      :     0.904029
      py      :     0.997403
      dz2     :     0.015467  d :     0.092103
      dxz     :     0.016991
      dyz     :     0.032413
      dx2y2   :     0.010302
      dxy     :     0.016930
      f0      :     0.001059  f :     0.007036
      f+1     :     0.001098
      f-1     :     0.001732
      f+2     :     0.001126
      f-2     :     0.000359
      f+3     :     0.001113
      f-3     :     0.000550

  9 C s       :     3.304066  s :     3.304066
      pz      :     0.903414  p :     2.837794
      px      :     0.953294
      py      :     0.981086
      dz2     :     0.016077  d :     0.077260
      dxz     :     0.017599
      dyz     :     0.024536
      dx2y2   :     0.009362
      dxy     :     0.009685
      f0      :     0.001460  f :     0.007118
      f+1     :     0.000921
      f-1     :     0.001683
      f+2     :     0.000964
      f-2     :     0.000797
      f+3     :     0.000590
      f-3     :     0.000701

 10 O s       :     3.768074  s :     3.768074
      pz      :     1.225455  p :     4.559395
      px      :     1.541327
      py      :     1.792612
      dz2     :     0.011581  d :     0.040025
      dxz     :     0.011834
      dyz     :     0.007904
      dx2y2   :     0.004362
      dxy     :     0.004344
      f0      :     0.000516  f :     0.002039
      f+1     :     0.000471
      f-1     :     0.000349
      f+2     :     0.000243
      f-2     :     0.000224
      f+3     :     0.000112
      f-3     :     0.000122

 11 C s       :     3.271977  s :     3.271977
      pz      :     0.905855  p :     2.823017
      px      :     0.856343
      py      :     1.060820
      dz2     :     0.021586  d :     0.083505
      dxz     :     0.012459
      dyz     :     0.012247
      dx2y2   :     0.019896
      dxy     :     0.017317
      f0      :     0.000784  f :     0.007653
      f+1     :     0.001736
      f-1     :     0.000703
      f+2     :     0.001235
      f-2     :     0.001361
      f+3     :     0.000637
      f-3     :     0.001197

 12 H s       :     0.852614  s :     0.852614
      pz      :     0.003677  p :     0.020467
      px      :     0.010753
      py      :     0.006036

 13 H s       :     0.841309  s :     0.841309
      pz      :     0.003643  p :     0.020894
      px      :     0.003847
      py      :     0.013404

 14 H s       :     0.832713  s :     0.832713
      pz      :     0.011625  p :     0.020521
      px      :     0.004015
      py      :     0.004881

 15 O s       :     3.773160  s :     3.773160
      pz      :     1.556880  p :     4.503653
      px      :     1.741581
      py      :     1.205191
      dz2     :     0.007109  d :     0.041244
      dxz     :     0.004653
      dyz     :     0.014947
      dx2y2   :     0.007079
      dxy     :     0.007456
      f0      :     0.000182  f :     0.002125
      f+1     :     0.000073
      f-1     :     0.000377
      f+2     :     0.000456
      f-2     :     0.000268
      f+3     :     0.000321
      f-3     :     0.000449

 16 C s       :     3.280103  s :     3.280103
      pz      :     1.082301  p :     2.842491
      px      :     1.082250
      py      :     0.677940
      dz2     :     0.008821  d :     0.082950
      dxz     :     0.011634
      dyz     :     0.022903
      dx2y2   :     0.012788
      dxy     :     0.026804
      f0      :     0.000515  f :     0.007942
      f+1     :     0.000336
      f-1     :     0.001458
      f+2     :     0.001910
      f-2     :     0.000264
      f+3     :     0.002262
      f-3     :     0.001197

 17 H s       :     0.833344  s :     0.833344
      pz      :     0.008348  p :     0.020228
      px      :     0.008550
      py      :     0.003330

 18 H s       :     0.834665  s :     0.834665
      pz      :     0.005384  p :     0.020296
      px      :     0.011374
      py      :     0.003539

 19 H s       :     0.824171  s :     0.824171
      pz      :     0.010131  p :     0.020828
      px      :     0.004729
      py      :     0.005968

 20 H s       :     0.806657  s :     0.806657
      pz      :     0.004926  p :     0.023126
      px      :     0.005009
      py      :     0.013192

 21 H s       :     0.813399  s :     0.813399
      pz      :     0.013671  p :     0.022390
      px      :     0.004806
      py      :     0.003914

 22 H s       :     0.809625  s :     0.809625
      pz      :     0.008296  p :     0.023623
      px      :     0.005581
      py      :     0.009746

 23 H s       :     0.820361  s :     0.820361
      pz      :     0.004806  p :     0.022885
      px      :     0.004871
      py      :     0.013208



                     *******************************
                     * LOEWDIN POPULATION ANALYSIS *
                     *******************************

----------------------
LOEWDIN ATOMIC CHARGES
----------------------
   0 Cu:   -0.399175
   1 Cu:   -0.348639
   2 I :    0.225300
   3 I :    0.240485
   4 C :   -0.228037
   5 C :   -0.225425
   6 C :   -0.115280
   7 C :   -0.107866
   8 C :   -0.144689
   9 C :   -0.085096
  10 O :    0.196501
  11 C :   -0.305672
  12 H :    0.111704
  13 H :    0.108076
  14 H :    0.116864
  15 O :    0.240947
  16 C :   -0.306183
  17 H :    0.116863
  18 H :    0.116023
  19 H :    0.120640
  20 H :    0.163343
  21 H :    0.161431
  22 H :    0.173836
  23 H :    0.174052

-------------------------------
LOEWDIN REDUCED ORBITAL CHARGES
-------------------------------
  0 Cus       :     6.362659  s :     6.362659
      pz      :     4.076856  p :    12.438822
      px      :     4.184314
      py      :     4.177652
      dz2     :     2.056962  d :    10.597615
      dxz     :     2.079153
      dyz     :     2.097297
      dx2y2   :     2.181099
      dxy     :     2.183104
      f0      :     0.000010  f :     0.000079
      f+1     :     0.000008
      f-1     :     0.000004
      f+2     :     0.000015
      f-2     :     0.000007
      f+3     :     0.000023
      f-3     :     0.000011

  1 Cus       :     6.457415  s :     6.457415
      pz      :     4.073713  p :    12.456336
      px      :     4.096121
      py      :     4.286502
      dz2     :     2.049908  d :    10.434802
      dxz     :     2.025868
      dyz     :     2.110366
      dx2y2   :     2.124723
      dxy     :     2.123936
      f0      :     0.000010  f :     0.000087
      f+1     :     0.000006
      f-1     :     0.000012
      f+2     :     0.000014
      f-2     :     0.000009
      f+3     :     0.000018
      f-3     :     0.000018

  2 I s       :     3.615051  s :     3.615051
      pz      :     3.795694  p :    11.068836
      px      :     3.683422
      py      :     3.589720
      dz2     :     2.009211  d :    10.078345
      dxz     :     2.007257
      dyz     :     2.017463
      dx2y2   :     2.025705
      dxy     :     2.018710
      f0      :     0.001213  f :     0.012467
      f+1     :     0.000577
      f-1     :     0.001667
      f+2     :     0.001191
      f-2     :     0.001796
      f+3     :     0.003145
      f-3     :     0.002879

  3 I s       :     3.601558  s :     3.601558
      pz      :     3.786300  p :    11.064928
      px      :     3.691758
      py      :     3.586871
      dz2     :     2.009920  d :    10.080129
      dxz     :     2.006418
      dyz     :     2.017122
      dx2y2   :     2.026641
      dxy     :     2.020027
      f0      :     0.001171  f :     0.012899
      f+1     :     0.000583
      f-1     :     0.001986
      f+2     :     0.001583
      f-2     :     0.001672
      f+3     :     0.002936
      f-3     :     0.002969

  4 C s       :     2.706020  s :     2.706020
      pz      :     0.853539  p :     2.769643
      px      :     0.878226
      py      :     1.037879
      dz2     :     0.170531  d :     0.656970
      dxz     :     0.120775
      dyz     :     0.214577
      dx2y2   :     0.076460
      dxy     :     0.074627
      f0      :     0.019278  f :     0.095403
      f+1     :     0.015964
      f-1     :     0.029044
      f+2     :     0.010907
      f-2     :     0.008960
      f+3     :     0.005488
      f-3     :     0.005762

  5 C s       :     2.708678  s :     2.708678
      pz      :     0.974236  p :     2.753439
      px      :     0.860456
      py      :     0.918747
      dz2     :     0.163046  d :     0.667125
      dxz     :     0.111725
      dyz     :     0.205150
      dx2y2   :     0.085312
      dxy     :     0.101891
      f0      :     0.013341  f :     0.096184
      f+1     :     0.007698
      f-1     :     0.028346
      f+2     :     0.014461
      f-2     :     0.017467
      f+3     :     0.007264
      f-3     :     0.007607

  6 C s       :     2.756196  s :     2.756196
      pz      :     1.026030  p :     2.950898
      px      :     0.918021
      py      :     1.006847
      dz2     :     0.115658  d :     0.365391
      dxz     :     0.066342
      dyz     :     0.108237
      dx2y2   :     0.053016
      dxy     :     0.022138
      f0      :     0.008843  f :     0.042794
      f+1     :     0.005798
      f-1     :     0.011734
      f+2     :     0.005422
      f-2     :     0.005218
      f+3     :     0.002008
      f-3     :     0.003771

  7 C s       :     2.756661  s :     2.756661
      pz      :     0.994658  p :     2.912064
      px      :     0.862820
      py      :     1.054587
      dz2     :     0.108157  d :     0.395219
      dxz     :     0.020785
      dyz     :     0.109158
      dx2y2   :     0.072660
      dxy     :     0.084460
      f0      :     0.005496  f :     0.043921
      f+1     :     0.001546
      f-1     :     0.011897
      f+2     :     0.007547
      f-2     :     0.007096
      f+3     :     0.004849
      f-3     :     0.005492

  8 C s       :     2.740031  s :     2.740031
      pz      :     1.015882  p :     2.952743
      px      :     0.909636
      py      :     1.027224
      dz2     :     0.087272  d :     0.407712
      dxz     :     0.060760
      dyz     :     0.156236
      dx2y2   :     0.052541
      dxy     :     0.050902
      f0      :     0.008258  f :     0.044203
      f+1     :     0.006365
      f-1     :     0.011717
      f+2     :     0.006112
      f-2     :     0.001801
      f+3     :     0.005166
      f-3     :     0.004785

  9 C s       :     2.746450  s :     2.746450
      pz      :     1.032161  p :     2.904511
      px      :     0.873531
      py      :     0.998819
      dz2     :     0.107443  d :     0.390859
      dxz     :     0.077243
      dyz     :     0.123652
      dx2y2   :     0.054592
      dxy     :     0.027929
      f0      :     0.008398  f :     0.043277
      f+1     :     0.005230
      f-1     :     0.011666
      f+2     :     0.005828
      f-2     :     0.005983
      f+3     :     0.002501
      f-3     :     0.003671

 10 O s       :     3.248952  s :     3.248952
      pz      :     1.271897  p :     4.439874
      px      :     1.516165
      py      :     1.651812
      dz2     :     0.034608  d :     0.107997
      dxz     :     0.033545
      dyz     :     0.021334
      dx2y2   :     0.009641
      dxy     :     0.008868
      f0      :     0.001458  f :     0.006676
      f+1     :     0.001683
      f-1     :     0.001173
      f+2     :     0.000826
      f-2     :     0.000914
      f+3     :     0.000351
      f-3     :     0.000271

 11 C s       :     2.865758  s :     2.865758
      pz      :     0.957953  p :     3.014229
      px      :     0.956024
      py      :     1.100252
      dz2     :     0.093389  d :     0.372323
      dxz     :     0.072783
      dyz     :     0.041002
      dx2y2   :     0.090887
      dxy     :     0.074262
      f0      :     0.005089  f :     0.053362
      f+1     :     0.009876
      f-1     :     0.005571
      f+2     :     0.010228
      f-2     :     0.011801
      f+3     :     0.004054
      f-3     :     0.006743

 12 H s       :     0.826395  s :     0.826395
      pz      :     0.011802  p :     0.061901
      px      :     0.031221
      py      :     0.018879

 13 H s       :     0.828097  s :     0.828097
      pz      :     0.011395  p :     0.063827
      px      :     0.011650
      py      :     0.040782

 14 H s       :     0.822054  s :     0.822054
      pz      :     0.032673  p :     0.061082
      px      :     0.013012
      py      :     0.015397

 15 O s       :     3.236625  s :     3.236625
      pz      :     1.531329  p :     4.402185
      px      :     1.607440
      py      :     1.263417
      dz2     :     0.019261  d :     0.113446
      dxz     :     0.009328
      dyz     :     0.038731
      dx2y2   :     0.024109
      dxy     :     0.022016
      f0      :     0.000853  f :     0.006797
      f+1     :     0.000234
      f-1     :     0.001645
      f+2     :     0.001196
      f-2     :     0.000997
      f+3     :     0.000970
      f-3     :     0.000901

 16 C s       :     2.860388  s :     2.860388
      pz      :     1.099781  p :     3.016925
      px      :     1.112884
      py      :     0.804260
      dz2     :     0.034749  d :     0.373835
      dxz     :     0.053043
      dyz     :     0.114362
      dx2y2   :     0.083142
      dxy     :     0.088540
      f0      :     0.005968  f :     0.055036
      f+1     :     0.001845
      f-1     :     0.010489
      f+2     :     0.009884
      f-2     :     0.003168
      f+3     :     0.014324
      f-3     :     0.009358

 17 H s       :     0.821291  s :     0.821291
      pz      :     0.025654  p :     0.061847
      px      :     0.026483
      py      :     0.009709

 18 H s       :     0.821957  s :     0.821957
      pz      :     0.016767  p :     0.062020
      px      :     0.035092
      py      :     0.010160

 19 H s       :     0.818149  s :     0.818149
      pz      :     0.030826  p :     0.061211
      px      :     0.014479
      py      :     0.015906

 20 H s       :     0.774181  s :     0.774181
      pz      :     0.013820  p :     0.062476
      px      :     0.014496
      py      :     0.034160

 21 H s       :     0.778739  s :     0.778739
      pz      :     0.034692  p :     0.059830
      px      :     0.013499
      py      :     0.011639

 22 H s       :     0.765012  s :     0.765012
      pz      :     0.021169  p :     0.061153
      px      :     0.014386
      py      :     0.025598

 23 H s       :     0.765515  s :     0.765515
      pz      :     0.013820  p :     0.060433
      px      :     0.012740
      py      :     0.033873



                      *****************************
                      * MAYER POPULATION ANALYSIS *
                      *****************************

  NA   - Mulliken gross atomic population
  ZA   - Total nuclear charge
  QA   - Mulliken gross atomic charge
  VA   - Mayer's total valence
  BVA  - Mayer's bonded valence
  FA   - Mayer's free valence

  ATOM       NA         ZA         QA         VA         BVA        FA
  0 Cu    28.7625    29.0000     0.2375     1.6308     1.6308     0.0000
  1 Cu    28.8285    29.0000     0.1715     1.5996     1.5996    -0.0000
  2 I     25.3662    25.0000    -0.3662     1.1480     1.1480    -0.0000
  3 I     25.3622    25.0000    -0.3622     1.1685     1.1685     0.0000
  4 C      5.6804     6.0000     0.3196     3.7178     3.7178    -0.0000
  5 C      5.7552     6.0000     0.2448     3.8108     3.8108    -0.0000
  6 C      6.2767     6.0000    -0.2767     3.8503     3.8503     0.0000
  7 C      6.1085     6.0000    -0.1085     3.7745     3.7745    -0.0000
  8 C      6.0600     6.0000    -0.0600     3.7631     3.7631    -0.0000
  9 C      6.2262     6.0000    -0.2262     3.8971     3.8971    -0.0000
 10 O      8.3695     8.0000    -0.3695     1.9905     1.9905    -0.0000
 11 C      6.1862     6.0000    -0.1862     3.7953     3.7953    -0.0000
 12 H      0.8731     1.0000     0.1269     0.9700     0.9700    -0.0000
 13 H      0.8622     1.0000     0.1378     0.9615     0.9615     0.0000
 14 H      0.8532     1.0000     0.1468     0.9623     0.9623     0.0000
 15 O      8.3202     8.0000    -0.3202     2.0793     2.0793     0.0000
 16 C      6.2135     6.0000    -0.2135     3.8151     3.8151     0.0000
 17 H      0.8536     1.0000     0.1464     0.9557     0.9557    -0.0000
 18 H      0.8550     1.0000     0.1450     0.9590     0.9590     0.0000
 19 H      0.8450     1.0000     0.1550     0.9617     0.9617    -0.0000
 20 H      0.8298     1.0000     0.1702     0.9756     0.9756     0.0000
 21 H      0.8358     1.0000     0.1642     0.9571     0.9571    -0.0000
 22 H      0.8332     1.0000     0.1668     0.9785     0.9785     0.0000
 23 H      0.8432     1.0000     0.1568     0.9899     0.9899     0.0000

  Mayer bond orders larger than 0.100000
B(  0-Cu,  1-Cu) :   0.1473 B(  0-Cu,  2-I ) :   0.3820 B(  0-Cu,  3-I ) :   0.4326 
B(  0-Cu,  8-C ) :   0.2890 B(  0-Cu,  9-C ) :   0.1894 B(  1-Cu,  2-I ) :   0.7282 
B(  1-Cu,  3-I ) :   0.7096 B(  4-C ,  5-C ) :   1.2625 B(  4-C ,  9-C ) :   1.3805 
B(  4-C , 10-O ) :   1.0108 B(  5-C ,  6-C ) :   1.2879 B(  5-C , 15-O ) :   1.1192 
B(  6-C ,  7-C ) :   1.3575 B(  6-C , 20-H ) :   0.9661 B(  7-C ,  8-C ) :   1.2869 
B(  7-C , 21-H ) :   0.9752 B(  8-C ,  9-C ) :   1.1530 B(  8-C , 22-H ) :   0.9629 
B(  9-C , 23-H ) :   0.9988 B( 10-O , 11-C ) :   0.8826 B( 11-C , 12-H ) :   0.9612 
B( 11-C , 13-H ) :   0.9635 B( 11-C , 14-H ) :   0.9678 B( 15-O , 16-C ) :   0.8947 
B( 16-C , 17-H ) :   0.9647 B( 16-C , 18-H ) :   0.9627 B( 16-C , 19-H ) :   0.9655 


-------
TIMINGS
-------

Total SCF time: 0 days 0 hours 1 min 34 sec 

Total time                  ....      94.588 sec
Sum of individual times     ....      91.243 sec  ( 96.5%)

SCF preparation             ....       2.054 sec  (  2.2%)
Fock matrix formation       ....      88.214 sec  ( 93.3%)
  Startup                   ....       0.012 sec  (  0.0% of F)
  Split-RI-J                ....       3.957 sec  (  4.5% of F)
  Chain of spheres X        ....      74.805 sec  ( 84.8% of F)
  XC integration            ....       8.253 sec  (  9.4% of F)
    XC Preparation          ....       0.000 sec  (  0.0% of XC)
    Basis function eval.    ....       2.156 sec  ( 26.1% of XC)
    Density eval.           ....       2.271 sec  ( 27.5% of XC)
    XC-Functional eval.     ....       0.185 sec  (  2.2% of XC)
    XC-Potential eval.      ....       2.976 sec  ( 36.1% of XC)
  CPCM terms                ....       4.320 sec  (  4.9% of F)
Diagonalization             ....       0.000 sec  (  0.0%)
Density matrix formation    ....       0.084 sec  (  0.1%)
Total Energy calculation    ....       0.054 sec  (  0.1%)
Population analysis         ....       0.039 sec  (  0.0%)
Orbital Transformation      ....       0.086 sec  (  0.1%)
Orbital Orthonormalization  ....       0.000 sec  (  0.0%)
DIIS solution               ....       0.334 sec  (  0.4%)
SOSCF solution              ....       0.379 sec  (  0.4%)
Finished LeanSCF after  94.6 sec

Maximum memory used throughout the entire LEANSCF-calculation: 67.4 MB


-------------------------------------------------------------------------------
                          DFT DISPERSION CORRECTION                            
                                                                               
                              DFTD3 V3.1  Rev 1                                
                          USING Becke-Johnson damping                          
-------------------------------------------------------------------------------
The B3LYP functional is recognized
Active option DFTDOPT                   ...         4   

molecular C6(AA) [au] = 15505.869811 


            DFT-D V3
 parameters
 s6 scaling factor         :     1.0000 
 a1 scaling factor         :     0.3981 
 s8 scaling factor         :     1.9889 
 a2 scaling factor         :     4.4211 
 ad hoc parameters k1-k3   :    16.0000     1.3333    -4.0000 

 Edisp/kcal,au: -42.645104192861  -0.067959292101 
 E6   /kcal   : -17.165821960 
 E8   /kcal   : -25.479282233 
 % E8         :  59.747262235 

-------------------------   ----------------
Dispersion correction           -0.067959292
-------------------------   ----------------


-------------------------   --------------------
FINAL SINGLE POINT ENERGY     -4337.789112631746
-------------------------   --------------------



           ************************************************************
           *        Program running with 8 parallel MPI-processes     *
           *              working on a common directory               *
           ************************************************************

------------------------------------------------------------------------------
                              ORCA PROPERTY CALCULATIONS
------------------------------------------------------------------------------

GBWName                                 ... cu2i2_veratrole_pi_v2_smd_sp.gbw
Number of atoms                         ...     24
Number of basis functions               ...    560
Max core memory                         ...   5000 MB

Electric properties:
Dipole moment                           ... YES
Quadrupole moment                       ...  NO
Static polarizability (Dipole/Dipole)   ...  NO
Static polarizability (Dipole/Quad.)    ...  NO
Static polarizability (Quad./Quad.)     ...  NO
Static polarizability (Velocity)        ...  NO
Static hyperpolarizability              ...  NO

Atomic electric properties:
Dipole moment                           ...  NO
Quadrupole moment                       ...  NO
Static polarizability                   ...  NO

Choice of electric origin               ... Center of mass
Position of electric origin             ...    -1.245237    -0.668229     1.356894

General magnetic properties:
Magnetizability                         ...  NO

EPR properties:
g-Tensor (aka g-matrix)                 ...  NO
Zero-Field splitting spin-orbit         ...  NO
Zero-field splitting spin-spin          ...  NO
Hyperfine couplings                     ...  NO (   0 nuclei)
Quadrupole couplings                    ...  NO (   0 nuclei)
Contact density                         ...  NO (   0 nuclei)

NMR properties:
Chemical shifts                         ...  NO (   0 nuclei)
Spin-rotation constants                 ...  NO (   0 nuclei)
Spin-spin couplings                     ...  NO (   0 nuclei,    0 pairs)

Choice of magnetic origin               ... GIAO
Position of magnetic origin             ...     0.000000     0.000000     0.000000

Properties with geometric perturbations:
SCF Hessian                             ...  NO
IR spectrum                             ...  NO
VCD spectrum                            ...  NO
X-ray spectroscopy properties:
SCF XES/XAS/RIXS spectra                ...  NO

SCF SOC stabilization energy            ...  NO
Diagonal Born-Oppenheimer correction    ...  NO

-------------
DIPOLE MOMENT
-------------

Method             : SCF
Type of density    : Electron Density
Multiplicity       :   1
Irrep              :   0
Energy             : -4337.7211533396457526 Eh
Basis              : AO
                                X                 Y                 Z
Electronic contribution:    187.870707357     -73.975898810     -33.226226747
Nuclear contribution   :   -188.960539327      75.363302971      32.790507211
                        -----------------------------------------
Total Dipole Moment    :     -1.089831970       1.387404160      -0.435719537
                        -----------------------------------------
Magnitude (a.u.)       :      1.817271455
Magnitude (Debye)      :      4.619136950



--------------------
Rotational spectrum 
--------------------
 
Rotational constants in cm-1:             0.012489             0.005872             0.004738 
Rotational constants in MHz :           374.401875           176.046913           142.046020 

Dipole components along the rotational axes: 
x,y,z [a.u.] :    -1.594248    -0.051525     0.870744 
x,y,z [Debye]:    -4.052256    -0.130965     2.213255 

 

Dipole moment calculation done in   0.0 sec 

Maximum memory used throughout the entire PROP-calculation: 40.0 MB

--------------------------------
SUGGESTED CITATIONS FOR THIS RUN
--------------------------------

Below you find a list of papers that are relevant to this ORCA run
We neither can nor want to force you to cite these papers, but we appreciate if you do
You receive ORCA, which is the product of decades of hard work by many enthusiastic individuals, for free
The only thing we kindly ask in return is that you cite our papers,
We deeply appreciate it, if you show your appreciation for ORCA by not just citing the generic ORCA reference.

Please note that relegating all ORCA citations to the supporting information does *not* help us.
SI sections are not indexed - citations you put there will not count into any citation statistics
But we need these citations in order to attract the funding resources that allow us to do what we are doing

Therefore, if you are a happy ORCA user, please consider citing a few of the papers listed below in the main body of your paper

In addition to the list printed below, the program has created the file cu2i2_veratrole_pi_v2_smd_sp.bibtex that contains the list in bibtex format
You can import this file easily into all common literature databanks and citation aid programs

It goes without saying that in many instances, there are alternative algorithms to achieve similar
results as the ones you have gotten from ORCA. It is, of course, also the case that in some instances
ORCA just re-implements algorithms worked out by others. We are fully aware of that and we are also
fully appreciative of our colleagues work. Hence this citation list should not be read as indicating
that the listed papers, which are focused on our own work, are the only ones worth citing. It simply
meant to make it easier for users to cite ORCA specific papers. It is not a substitute for doing your
own literature research and citing the relevant literature in a scientifically appropriate manner.

List of essential papers. We consider these as the minimum necessary citations

  1. Neese, F.
     Software update: the ORCA program system, version 6.0
     WIRES Comput. Molec. Sci. 2025 15(1), e70019
     doi.org/10.1002/wcms.70019

List of papers to cite with high priority. The work reported in these papers was absolutely
necessary for this run to complete.
Our perspective: the developers of density functionals and basis sets usually get cited in chemistry papers
Good! But without the algorithms to do something with them, the functionals or basis sets would not do anything.
Hence, in our opinion, the algorithm design and method developments papers are equally worthy of getting cited

  1. Neese, F.
     An improvement of the resolution of the identity approximation for the formation of the Coulomb matrix
     J. Comp. Chem. 2003 24(14), 1740-1747
     doi.org/10.1002/jcc.10318
  2. Neese, F.; Wennmohs, F.; Hansen, A.; Becker, U.
     Efficient, approximate and parallel Hartree-Fock and hybrid DFT calculations. A 'chain-of-spheres' algorithm for the Hartree-Fock exchange
     Chem. Phys. 2009 356(1-3), 98-109
     doi.org/10.1016/j.chemphys.2008.10.036
  3. Grimme, S.; Antony, J.; Ehrlich, S.; Krieg, H.
     A consistent and accurate ab initio parametrization of density functional dispersion correction (DFT-D) for the 94 elements H-Pu
     J. Chem. Phys. 2010 132 , 154104
     doi.org/10.1063/1.3382344
  4. Grimme, S.; Ehrlich, S.; Goerigk, L.
     Effect of the damping function in dispersion corrected density functional theory
     J. Comput. Chem. 2011 32(7), 1456-1465
     doi.org/10.1002/jcc.21759
  5. Garcia-Rates, M.; Neese, F.
     Effect of the Solute Cavity on the Solvation Energy and its Derivatives within the Framework of the Gaussian Charge Scheme
     J. Comput. Chem. 2020 41 , 922-939
     doi.org/10.1002/jcc.26139
  6. Helmich-Paris, B.; de Souza, B.; Neese, F.; Izsák, R.
     An improved chain of spheres for exchange algorithm
     J. Chem. Phys. 2021 155(10), 104109
     doi.org/10.1063/5.0058766
  7. Neese, F.
     The SHARK Integral Generation and Digestion System
     J. Comp. Chem. 2022 44(3), 381
     doi.org/10.1002/jcc.26942

List of suggested additional citations. These are papers that are important in the 'surrounding' of 
of this run, or papers that preceded the highly important papers. If you like your results we are grateful for a citation.

  1. Izsak, R.; Neese, F.
     An overlap fitted chain of spheres exchange method
     J. Chem. Phys. 2011 135 , 144105
     doi.org/10.1063/1.3646921
  2. Izsak, R.; Hansen, A.; Neese, F.
     The resolution of identity and chain of spheres approximations for the LPNO-CCSD singles Fock term
     Molec. Phys. 2012 110 , 2413-2417
     doi.org/10.1080/00268976.2012.687466
  3. Neese, F.
     The ORCA program system
     WIRES Comput. Molec. Sci. 2012 2(1), 73-78
     doi.org/10.1002/wcms.81
  4. Izsak, R.; Neese, F.; Klopper, W.
     Robust fitting techniques in the chain of spheres approximation to the Fock exchange: The role of the complementary space
     J. Chem. Phys. 2013 139 , 
     doi.org/10.1063/1.4819264
  5. Neese, F.
     Software update: the ORCA program system, version 4.0
     WIRES Comput. Molec. Sci. 2018 8(1), 1-6
     doi.org/10.1002/wcms.1327
  6. Neese, F.; Wennmohs, F.; Becker, U.; Riplinger, C.
     The ORCA quantum chemistry program package
     J. Chem. Phys. 2020 152(22), 224108
     doi.org/10.1063/5.0004608
  7. Neese, F.
     Software update: The ORCA program system—Version 5.0
     WIRES Comput. Molec. Sci. 2022 12(1), e1606
     doi.org/10.1002/wcms.1606

List of optional additional citations

  1. Neese, F.
     Approximate second-order SCF convergence for spin unrestricted wavefunctions
     Chem. Phys. Lett. 2000 325(1-3), 93-98
     doi.org/10.1016/s0009-2614(00)00662-x

Timings for individual modules:

Sum of individual times          ...      104.677 sec (=   1.745 min)
Startup calculation              ...        6.641 sec (=   0.111 min)   6.3 %
SCF iterations                   ...       97.600 sec (=   1.627 min)  93.2 %
Property calculations            ...        0.436 sec (=   0.007 min)   0.4 %
                             ****ORCA TERMINATED NORMALLY****
TOTAL RUN TIME: 0 days 0 hours 1 minutes 45 seconds 621 msec
